ITEM: TIMESTEP
100
ITEM: NUMBER OF ATOMS
5128
ITEM: BOX BOUNDS pp pp pp
-1.6160000000000000e+01 1.6160000000000000e+01
-1.6160000000000000e+01 1.6160000000000000e+01
-5.2520000000000003e+01 5.2520000000000003e+01
ITEM: ATOMS id type xs ys zs
1 5 0 0 0.0384615
2 5 0.0625 0.0625 0.0384615
3 5 0.0625 0 0.0576923
4 5 0 0.0625 0.0576923
5 5 0.125 0 0.0384615
6 5 0.1875 0.0625 0.0384615
7 5 0.1875 0 0.0576923
8 5 0.125 0.0625 0.0576923
33 5 0 0.125 0.0384615
34 5 0.0625 0.1875 0.0384615
35 5 0.0625 0.125 0.0576923
36 5 0 0.1875 0.0576923
37 5 0.125 0.125 0.0384615
38 5 0.1875 0.1875 0.0384615
39 5 0.1875 0.125 0.0576923
40 5 0.125 0.1875 0.0576923
9 5 0.25 0 0.0384615
10 5 0.3125 0.0625 0.0384615
11 5 0.3125 0 0.0576923
12 5 0.25 0.0625 0.0576923
13 5 0.375 0 0.0384615
14 5 0.4375 0.0625 0.0384615
15 5 0.4375 0 0.0576923
16 5 0.375 0.0625 0.0576923
41 5 0.25 0.125 0.0384615
42 5 0.3125 0.1875 0.0384615
43 5 0.3125 0.125 0.0576923
44 5 0.25 0.1875 0.0576923
45 5 0.375 0.125 0.0384615
46 5 0.4375 0.1875 0.0384615
47 5 0.4375 0.125 0.0576923
48 5 0.375 0.1875 0.0576923
17 5 0.5 0 0.0384615
18 5 0.5625 0.0625 0.0384615
19 5 0.5625 0 0.0576923
20 5 0.5 0.0625 0.0576923
21 5 0.625 0 0.0384615
22 5 0.6875 0.0625 0.0384615
23 5 0.6875 0 0.0576923
24 5 0.625 0.0625 0.0576923
49 5 0.5 0.125 0.0384615
50 5 0.5625 0.1875 0.0384615
51 5 0.5625 0.125 0.0576923
52 5 0.5 0.1875 0.0576923
53 5 0.625 0.125 0.0384615
54 5 0.6875 0.1875 0.0384615
55 5 0.6875 0.125 0.0576923
56 5 0.625 0.1875 0.0576923
25 5 0.75 0 0.0384615
26 5 0.8125 0.0625 0.0384615
27 5 0.8125 0 0.0576923
28 5 0.75 0.0625 0.0576923
29 5 0.875 0 0.0384615
30 5 0.9375 0.0625 0.0384615
31 5 0.9375 0 0.0576923
32 5 0.875 0.0625 0.0576923
57 5 0.75 0.125 0.0384615
58 5 0.8125 0.1875 0.0384615
59 5 0.8125 0.125 0.0576923
60 5 0.75 0.1875 0.0576923
61 5 0.875 0.125 0.0384615
62 5 0.9375 0.1875 0.0384615
63 5 0.9375 0.125 0.0576923
64 5 0.875 0.1875 0.0576923
65 5 0 0.25 0.0384615
66 5 0.0625 0.3125 0.0384615
67 5 0.0625 0.25 0.0576923
68 5 0 0.3125 0.0576923
69 5 0.125 0.25 0.0384615
70 5 0.1875 0.3125 0.0384615
71 5 0.1875 0.25 0.0576923
72 5 0.125 0.3125 0.0576923
97 5 0 0.375 0.0384615
98 5 0.0625 0.4375 0.0384615
99 5 0.0625 0.375 0.0576923
100 5 0 0.4375 0.0576923
101 5 0.125 0.375 0.0384615
102 5 0.1875 0.4375 0.0384615
103 5 0.1875 0.375 0.0576923
104 5 0.125 0.4375 0.0576923
73 5 0.25 0.25 0.0384615
74 5 0.3125 0.3125 0.0384615
75 5 0.3125 0.25 0.0576923
76 5 0.25 0.3125 0.0576923
77 5 0.375 0.25 0.0384615
78 5 0.4375 0.3125 0.0384615
79 5 0.4375 0.25 0.0576923
80 5 0.375 0.3125 0.0576923
105 5 0.25 0.375 0.0384615
106 5 0.3125 0.4375 0.0384615
107 5 0.3125 0.375 0.0576923
108 5 0.25 0.4375 0.0576923
109 5 0.375 0.375 0.0384615
110 5 0.4375 0.4375 0.0384615
111 5 0.4375 0.375 0.0576923
112 5 0.375 0.4375 0.0576923
81 5 0.5 0.25 0.0384615
82 5 0.5625 0.3125 0.0384615
83 5 0.5625 0.25 0.0576923
84 5 0.5 0.3125 0.0576923
85 5 0.625 0.25 0.0384615
86 5 0.6875 0.3125 0.0384615
87 5 0.6875 0.25 0.0576923
88 5 0.625 0.3125 0.0576923
113 5 0.5 0.375 0.0384615
114 5 0.5625 0.4375 0.0384615
115 5 0.5625 0.375 0.0576923
116 5 0.5 0.4375 0.0576923
117 5 0.625 0.375 0.0384615
118 5 0.6875 0.4375 0.0384615
119 5 0.6875 0.375 0.0576923
120 5 0.625 0.4375 0.0576923
89 5 0.75 0.25 0.0384615
90 5 0.8125 0.3125 0.0384615
91 5 0.8125 0.25 0.0576923
92 5 0.75 0.3125 0.0576923
93 5 0.875 0.25 0.0384615
94 5 0.9375 0.3125 0.0384615
95 5 0.9375 0.25 0.0576923
96 5 0.875 0.3125 0.0576923
121 5 0.75 0.375 0.0384615
122 5 0.8125 0.4375 0.0384615
123 5 0.8125 0.375 0.0576923
124 5 0.75 0.4375 0.0576923
125 5 0.875 0.375 0.0384615
126 5 0.9375 0.4375 0.0384615
127 5 0.9375 0.375 0.0576923
128 5 0.875 0.4375 0.0576923
129 5 0 0.5 0.0384615
130 5 0.0625 0.5625 0.0384615
131 5 0.0625 0.5 0.0576923
132 5 0 0.5625 0.0576923
133 5 0.125 0.5 0.0384615
134 5 0.1875 0.5625 0.0384615
135 5 0.1875 0.5 0.0576923
136 5 0.125 0.5625 0.0576923
161 5 0 0.625 0.0384615
162 5 0.0625 0.6875 0.0384615
163 5 0.0625 0.625 0.0576923
164 5 0 0.6875 0.0576923
165 5 0.125 0.625 0.0384615
166 5 0.1875 0.6875 0.0384615
167 5 0.1875 0.625 0.0576923
168 5 0.125 0.6875 0.0576923
137 5 0.25 0.5 0.0384615
138 5 0.3125 0.5625 0.0384615
139 5 0.3125 0.5 0.0576923
140 5 0.25 0.5625 0.0576923
141 5 0.375 0.5 0.0384615
142 5 0.4375 0.5625 0.0384615
143 5 0.4375 0.5 0.0576923
144 5 0.375 0.5625 0.0576923
169 5 0.25 0.625 0.0384615
170 5 0.3125 0.6875 0.0384615
171 5 0.3125 0.625 0.0576923
172 5 0.25 0.6875 0.0576923
173 5 0.375 0.625 0.0384615
174 5 0.4375 0.6875 0.0384615
175 5 0.4375 0.625 0.0576923
176 5 0.375 0.6875 0.0576923
145 5 0.5 0.5 0.0384615
146 5 0.5625 0.5625 0.0384615
147 5 0.5625 0.5 0.0576923
148 5 0.5 0.5625 0.0576923
149 5 0.625 0.5 0.0384615
150 5 0.6875 0.5625 0.0384615
151 5 0.6875 0.5 0.0576923
152 5 0.625 0.5625 0.0576923
177 5 0.5 0.625 0.0384615
178 5 0.5625 0.6875 0.0384615
179 5 0.5625 0.625 0.0576923
180 5 0.5 0.6875 0.0576923
181 5 0.625 0.625 0.0384615
182 5 0.6875 0.6875 0.0384615
183 5 0.6875 0.625 0.0576923
184 5 0.625 0.6875 0.0576923
153 5 0.75 0.5 0.0384615
154 5 0.8125 0.5625 0.0384615
155 5 0.8125 0.5 0.0576923
156 5 0.75 0.5625 0.0576923
157 5 0.875 0.5 0.0384615
158 5 0.9375 0.5625 0.0384615
159 5 0.9375 0.5 0.0576923
160 5 0.875 0.5625 0.0576923
185 5 0.75 0.625 0.0384615
186 5 0.8125 0.6875 0.0384615
187 5 0.8125 0.625 0.0576923
188 5 0.75 0.6875 0.0576923
189 5 0.875 0.625 0.0384615
190 5 0.9375 0.6875 0.0384615
191 5 0.9375 0.625 0.0576923
192 5 0.875 0.6875 0.0576923
193 5 0 0.75 0.0384615
194 5 0.0625 0.8125 0.0384615
195 5 0.0625 0.75 0.0576923
196 5 0 0.8125 0.0576923
197 5 0.125 0.75 0.0384615
198 5 0.1875 0.8125 0.0384615
199 5 0.1875 0.75 0.0576923
200 5 0.125 0.8125 0.0576923
225 5 0 0.875 0.0384615
226 5 0.0625 0.9375 0.0384615
227 5 0.0625 0.875 0.0576923
228 5 0 0.9375 0.0576923
229 5 0.125 0.875 0.0384615
230 5 0.1875 0.9375 0.0384615
231 5 0.1875 0.875 0.0576923
232 5 0.125 0.9375 0.0576923
201 5 0.25 0.75 0.0384615
202 5 0.3125 0.8125 0.0384615
203 5 0.3125 0.75 0.0576923
204 5 0.25 0.8125 0.0576923
205 5 0.375 0.75 0.0384615
206 5 0.4375 0.8125 0.0384615
207 5 0.4375 0.75 0.0576923
208 5 0.375 0.8125 0.0576923
233 5 0.25 0.875 0.0384615
234 5 0.3125 0.9375 0.0384615
235 5 0.3125 0.875 0.0576923
236 5 0.25 0.9375 0.0576923
237 5 0.375 0.875 0.0384615
238 5 0.4375 0.9375 0.0384615
239 5 0.4375 0.875 0.0576923
240 5 0.375 0.9375 0.0576923
209 5 0.5 0.75 0.0384615
210 5 0.5625 0.8125 0.0384615
211 5 0.5625 0.75 0.0576923
212 5 0.5 0.8125 0.0576923
213 5 0.625 0.75 0.0384615
214 5 0.6875 0.8125 0.0384615
215 5 0.6875 0.75 0.0576923
216 5 0.625 0.8125 0.0576923
241 5 0.5 0.875 0.0384615
242 5 0.5625 0.9375 0.0384615
243 5 0.5625 0.875 0.0576923
244 5 0.5 0.9375 0.0576923
245 5 0.625 0.875 0.0384615
246 5 0.6875 0.9375 0.0384615
247 5 0.6875 0.875 0.0576923
248 5 0.625 0.9375 0.0576923
217 5 0.75 0.75 0.0384615
218 5 0.8125 0.8125 0.0384615
219 5 0.8125 0.75 0.0576923
220 5 0.75 0.8125 0.0576923
221 5 0.875 0.75 0.0384615
222 5 0.9375 0.8125 0.0384615
223 5 0.9375 0.75 0.0576923
224 5 0.875 0.8125 0.0576923
249 5 0.75 0.875 0.0384615
250 5 0.8125 0.9375 0.0384615
251 5 0.8125 0.875 0.0576923
252 5 0.75 0.9375 0.0576923
253 5 0.875 0.875 0.0384615
254 5 0.9375 0.9375 0.0384615
255 5 0.9375 0.875 0.0576923
256 5 0.875 0.9375 0.0576923
257 5 0 0 0.0769231
258 5 0.0625 0.0625 0.0769231
259 5 0.0625 0 0.0961538
260 5 0 0.0625 0.0961538
261 5 0.125 0 0.0769231
262 5 0.1875 0.0625 0.0769231
263 5 0.1875 0 0.0961538
264 5 0.125 0.0625 0.0961538
289 5 0 0.125 0.0769231
290 5 0.0625 0.1875 0.0769231
291 5 0.0625 0.125 0.0961538
292 5 0 0.1875 0.0961538
293 5 0.125 0.125 0.0769231
294 5 0.1875 0.1875 0.0769231
295 5 0.1875 0.125 0.0961538
296 5 0.125 0.1875 0.0961538
513 5 0 0 0.115385
514 5 0.0625 0.0625 0.115385
515 5 0.125 0 0.115385
516 5 0.1875 0.0625 0.115385
529 5 0 0.125 0.115385
530 5 0.0625 0.1875 0.115385
531 5 0.125 0.125 0.115385
532 5 0.1875 0.1875 0.115385
265 5 0.25 0 0.0769231
266 5 0.3125 0.0625 0.0769231
267 5 0.3125 0 0.0961538
268 5 0.25 0.0625 0.0961538
269 5 0.375 0 0.0769231
270 5 0.4375 0.0625 0.0769231
271 5 0.4375 0 0.0961538
272 5 0.375 0.0625 0.0961538
297 5 0.25 0.125 0.0769231
298 5 0.3125 0.1875 0.0769231
299 5 0.3125 0.125 0.0961538
300 5 0.25 0.1875 0.0961538
301 5 0.375 0.125 0.0769231
302 5 0.4375 0.1875 0.0769231
303 5 0.4375 0.125 0.0961538
304 5 0.375 0.1875 0.0961538
517 5 0.25 0 0.115385
518 5 0.3125 0.0625 0.115385
519 5 0.375 0 0.115385
520 5 0.4375 0.0625 0.115385
533 5 0.25 0.125 0.115385
534 5 0.3125 0.1875 0.115385
535 5 0.375 0.125 0.115385
536 5 0.4375 0.1875 0.115385
273 5 0.5 0 0.0769231
274 5 0.5625 0.0625 0.0769231
275 5 0.5625 0 0.0961538
276 5 0.5 0.0625 0.0961538
277 5 0.625 0 0.0769231
278 5 0.6875 0.0625 0.0769231
279 5 0.6875 0 0.0961538
280 5 0.625 0.0625 0.0961538
305 5 0.5 0.125 0.0769231
306 5 0.5625 0.1875 0.0769231
307 5 0.5625 0.125 0.0961538
308 5 0.5 0.1875 0.0961538
309 5 0.625 0.125 0.0769231
310 5 0.6875 0.1875 0.0769231
311 5 0.6875 0.125 0.0961538
312 5 0.625 0.1875 0.0961538
521 5 0.5 0 0.115385
522 5 0.5625 0.0625 0.115385
523 5 0.625 0 0.115385
524 5 0.6875 0.0625 0.115385
537 5 0.5 0.125 0.115385
538 5 0.5625 0.1875 0.115385
539 5 0.625 0.125 0.115385
540 5 0.6875 0.1875 0.115385
281 5 0.75 0 0.0769231
282 5 0.8125 0.0625 0.0769231
283 5 0.8125 0 0.0961538
284 5 0.75 0.0625 0.0961538
285 5 0.875 0 0.0769231
286 5 0.9375 0.0625 0.0769231
287 5 0.9375 0 0.0961538
288 5 0.875 0.0625 0.0961538
313 5 0.75 0.125 0.0769231
314 5 0.8125 0.1875 0.0769231
315 5 0.8125 0.125 0.0961538
316 5 0.75 0.1875 0.0961538
317 5 0.875 0.125 0.0769231
318 5 0.9375 0.1875 0.0769231
319 5 0.9375 0.125 0.0961538
320 5 0.875 0.1875 0.0961538
525 5 0.75 0 0.115385
526 5 0.8125 0.0625 0.115385
527 5 0.875 0 0.115385
528 5 0.9375 0.0625 0.115385
541 5 0.75 0.125 0.115385
542 5 0.8125 0.1875 0.115385
543 5 0.875 0.125 0.115385
544 5 0.9375 0.1875 0.115385
321 5 0 0.25 0.0769231
322 5 0.0625 0.3125 0.0769231
323 5 0.0625 0.25 0.0961538
324 5 0 0.3125 0.0961538
325 5 0.125 0.25 0.0769231
326 5 0.1875 0.3125 0.0769231
327 5 0.1875 0.25 0.0961538
328 5 0.125 0.3125 0.0961538
353 5 0 0.375 0.0769231
354 5 0.0625 0.4375 0.0769231
355 5 0.0625 0.375 0.0961538
356 5 0 0.4375 0.0961538
357 5 0.125 0.375 0.0769231
358 5 0.1875 0.4375 0.0769231
359 5 0.1875 0.375 0.0961538
360 5 0.125 0.4375 0.0961538
545 5 0 0.25 0.115385
546 5 0.0625 0.3125 0.115385
547 5 0.125 0.25 0.115385
548 5 0.1875 0.3125 0.115385
561 5 0 0.375 0.115385
562 5 0.0625 0.4375 0.115385
563 5 0.125 0.375 0.115385
564 5 0.1875 0.4375 0.115385
329 5 0.25 0.25 0.0769231
330 5 0.3125 0.3125 0.0769231
331 5 0.3125 0.25 0.0961538
332 5 0.25 0.3125 0.0961538
333 5 0.375 0.25 0.0769231
334 5 0.4375 0.3125 0.0769231
335 5 0.4375 0.25 0.0961538
336 5 0.375 0.3125 0.0961538
361 5 0.25 0.375 0.0769231
362 5 0.3125 0.4375 0.0769231
363 5 0.3125 0.375 0.0961538
364 5 0.25 0.4375 0.0961538
365 5 0.375 0.375 0.0769231
366 5 0.4375 0.4375 0.0769231
367 5 0.4375 0.375 0.0961538
368 5 0.375 0.4375 0.0961538
549 5 0.25 0.25 0.115385
550 5 0.3125 0.3125 0.115385
551 5 0.375 0.25 0.115385
552 5 0.4375 0.3125 0.115385
565 5 0.25 0.375 0.115385
566 5 0.3125 0.4375 0.115385
567 5 0.375 0.375 0.115385
568 5 0.4375 0.4375 0.115385
337 5 0.5 0.25 0.0769231
338 5 0.5625 0.3125 0.0769231
339 5 0.5625 0.25 0.0961538
340 5 0.5 0.3125 0.0961538
341 5 0.625 0.25 0.0769231
342 5 0.6875 0.3125 0.0769231
343 5 0.6875 0.25 0.0961538
344 5 0.625 0.3125 0.0961538
369 5 0.5 0.375 0.0769231
370 5 0.5625 0.4375 0.0769231
371 5 0.5625 0.375 0.0961538
372 5 0.5 0.4375 0.0961538
373 5 0.625 0.375 0.0769231
374 5 0.6875 0.4375 0.0769231
375 5 0.6875 0.375 0.0961538
376 5 0.625 0.4375 0.0961538
553 5 0.5 0.25 0.115385
554 5 0.5625 0.3125 0.115385
555 5 0.625 0.25 0.115385
556 5 0.6875 0.3125 0.115385
569 5 0.5 0.375 0.115385
570 5 0.5625 0.4375 0.115385
571 5 0.625 0.375 0.115385
572 5 0.6875 0.4375 0.115385
345 5 0.75 0.25 0.0769231
346 5 0.8125 0.3125 0.0769231
347 5 0.8125 0.25 0.0961538
348 5 0.75 0.3125 0.0961538
349 5 0.875 0.25 0.0769231
350 5 0.9375 0.3125 0.0769231
351 5 0.9375 0.25 0.0961538
352 5 0.875 0.3125 0.0961538
377 5 0.75 0.375 0.0769231
378 5 0.8125 0.4375 0.0769231
379 5 0.8125 0.375 0.0961538
380 5 0.75 0.4375 0.0961538
381 5 0.875 0.375 0.0769231
382 5 0.9375 0.4375 0.0769231
383 5 0.9375 0.375 0.0961538
384 5 0.875 0.4375 0.0961538
557 5 0.75 0.25 0.115385
558 5 0.8125 0.3125 0.115385
559 5 0.875 0.25 0.115385
560 5 0.9375 0.3125 0.115385
573 5 0.75 0.375 0.115385
574 5 0.8125 0.4375 0.115385
575 5 0.875 0.375 0.115385
576 5 0.9375 0.4375 0.115385
385 5 0 0.5 0.0769231
386 5 0.0625 0.5625 0.0769231
387 5 0.0625 0.5 0.0961538
388 5 0 0.5625 0.0961538
389 5 0.125 0.5 0.0769231
390 5 0.1875 0.5625 0.0769231
391 5 0.1875 0.5 0.0961538
392 5 0.125 0.5625 0.0961538
417 5 0 0.625 0.0769231
418 5 0.0625 0.6875 0.0769231
419 5 0.0625 0.625 0.0961538
420 5 0 0.6875 0.0961538
421 5 0.125 0.625 0.0769231
422 5 0.1875 0.6875 0.0769231
423 5 0.1875 0.625 0.0961538
424 5 0.125 0.6875 0.0961538
577 5 0 0.5 0.115385
578 5 0.0625 0.5625 0.115385
579 5 0.125 0.5 0.115385
580 5 0.1875 0.5625 0.115385
593 5 0 0.625 0.115385
594 5 0.0625 0.6875 0.115385
595 5 0.125 0.625 0.115385
596 5 0.1875 0.6875 0.115385
393 5 0.25 0.5 0.0769231
394 5 0.3125 0.5625 0.0769231
395 5 0.3125 0.5 0.0961538
396 5 0.25 0.5625 0.0961538
397 5 0.375 0.5 0.0769231
398 5 0.4375 0.5625 0.0769231
399 5 0.4375 0.5 0.0961538
400 5 0.375 0.5625 0.0961538
425 5 0.25 0.625 0.0769231
426 5 0.3125 0.6875 0.0769231
427 5 0.3125 0.625 0.0961538
428 5 0.25 0.6875 0.0961538
429 5 0.375 0.625 0.0769231
430 5 0.4375 0.6875 0.0769231
431 5 0.4375 0.625 0.0961538
432 5 0.375 0.6875 0.0961538
581 5 0.25 0.5 0.115385
582 5 0.3125 0.5625 0.115385
583 5 0.375 0.5 0.115385
584 5 0.4375 0.5625 0.115385
597 5 0.25 0.625 0.115385
598 5 0.3125 0.6875 0.115385
599 5 0.375 0.625 0.115385
600 5 0.4375 0.6875 0.115385
401 5 0.5 0.5 0.0769231
402 5 0.5625 0.5625 0.0769231
403 5 0.5625 0.5 0.0961538
404 5 0.5 0.5625 0.0961538
405 5 0.625 0.5 0.0769231
406 5 0.6875 0.5625 0.0769231
407 5 0.6875 0.5 0.0961538
408 5 0.625 0.5625 0.0961538
433 5 0.5 0.625 0.0769231
434 5 0.5625 0.6875 0.0769231
435 5 0.5625 0.625 0.0961538
436 5 0.5 0.6875 0.0961538
437 5 0.625 0.625 0.0769231
438 5 0.6875 0.6875 0.0769231
439 5 0.6875 0.625 0.0961538
440 5 0.625 0.6875 0.0961538
585 5 0.5 0.5 0.115385
586 5 0.5625 0.5625 0.115385
587 5 0.625 0.5 0.115385
588 5 0.6875 0.5625 0.115385
601 5 0.5 0.625 0.115385
602 5 0.5625 0.6875 0.115385
603 5 0.625 0.625 0.115385
604 5 0.6875 0.6875 0.115385
409 5 0.75 0.5 0.0769231
410 5 0.8125 0.5625 0.0769231
411 5 0.8125 0.5 0.0961538
412 5 0.75 0.5625 0.0961538
413 5 0.875 0.5 0.0769231
414 5 0.9375 0.5625 0.0769231
415 5 0.9375 0.5 0.0961538
416 5 0.875 0.5625 0.0961538
441 5 0.75 0.625 0.0769231
442 5 0.8125 0.6875 0.0769231
443 5 0.8125 0.625 0.0961538
444 5 0.75 0.6875 0.0961538
445 5 0.875 0.625 0.0769231
446 5 0.9375 0.6875 0.0769231
447 5 0.9375 0.625 0.0961538
448 5 0.875 0.6875 0.0961538
589 5 0.75 0.5 0.115385
590 5 0.8125 0.5625 0.115385
591 5 0.875 0.5 0.115385
592 5 0.9375 0.5625 0.115385
605 5 0.75 0.625 0.115385
606 5 0.8125 0.6875 0.115385
607 5 0.875 0.625 0.115385
608 5 0.9375 0.6875 0.115385
449 5 0 0.75 0.0769231
450 5 0.0625 0.8125 0.0769231
451 5 0.0625 0.75 0.0961538
452 5 0 0.8125 0.0961538
453 5 0.125 0.75 0.0769231
454 5 0.1875 0.8125 0.0769231
455 5 0.1875 0.75 0.0961538
456 5 0.125 0.8125 0.0961538
481 5 0 0.875 0.0769231
482 5 0.0625 0.9375 0.0769231
483 5 0.0625 0.875 0.0961538
484 5 0 0.9375 0.0961538
485 5 0.125 0.875 0.0769231
486 5 0.1875 0.9375 0.0769231
487 5 0.1875 0.875 0.0961538
488 5 0.125 0.9375 0.0961538
609 5 0 0.75 0.115385
610 5 0.0625 0.8125 0.115385
611 5 0.125 0.75 0.115385
612 5 0.1875 0.8125 0.115385
625 5 0 0.875 0.115385
626 5 0.0625 0.9375 0.115385
627 5 0.125 0.875 0.115385
628 5 0.1875 0.9375 0.115385
457 5 0.25 0.75 0.0769231
458 5 0.3125 0.8125 0.0769231
459 5 0.3125 0.75 0.0961538
460 5 0.25 0.8125 0.0961538
461 5 0.375 0.75 0.0769231
462 5 0.4375 0.8125 0.0769231
463 5 0.4375 0.75 0.0961538
464 5 0.375 0.8125 0.0961538
489 5 0.25 0.875 0.0769231
490 5 0.3125 0.9375 0.0769231
491 5 0.3125 0.875 0.0961538
492 5 0.25 0.9375 0.0961538
493 5 0.375 0.875 0.0769231
494 5 0.4375 0.9375 0.0769231
495 5 0.4375 0.875 0.0961538
496 5 0.375 0.9375 0.0961538
613 5 0.25 0.75 0.115385
614 5 0.3125 0.8125 0.115385
615 5 0.375 0.75 0.115385
616 5 0.4375 0.8125 0.115385
629 5 0.25 0.875 0.115385
630 5 0.3125 0.9375 0.115385
631 5 0.375 0.875 0.115385
632 5 0.4375 0.9375 0.115385
465 5 0.5 0.75 0.0769231
466 5 0.5625 0.8125 0.0769231
467 5 0.5625 0.75 0.0961538
468 5 0.5 0.8125 0.0961538
469 5 0.625 0.75 0.0769231
470 5 0.6875 0.8125 0.0769231
471 5 0.6875 0.75 0.0961538
472 5 0.625 0.8125 0.0961538
497 5 0.5 0.875 0.0769231
498 5 0.5625 0.9375 0.0769231
499 5 0.5625 0.875 0.0961538
500 5 0.5 0.9375 0.0961538
501 5 0.625 0.875 0.0769231
502 5 0.6875 0.9375 0.0769231
503 5 0.6875 0.875 0.0961538
504 5 0.625 0.9375 0.0961538
617 5 0.5 0.75 0.115385
618 5 0.5625 0.8125 0.115385
619 5 0.625 0.75 0.115385
620 5 0.6875 0.8125 0.115385
633 5 0.5 0.875 0.115385
634 5 0.5625 0.9375 0.115385
635 5 0.625 0.875 0.115385
636 5 0.6875 0.9375 0.115385
473 5 0.75 0.75 0.0769231
474 5 0.8125 0.8125 0.0769231
475 5 0.8125 0.75 0.0961538
476 5 0.75 0.8125 0.0961538
477 5 0.875 0.75 0.0769231
478 5 0.9375 0.8125 0.0769231
479 5 0.9375 0.75 0.0961538
480 5 0.875 0.8125 0.0961538
505 5 0.75 0.875 0.0769231
506 5 0.8125 0.9375 0.0769231
507 5 0.8125 0.875 0.0961538
508 5 0.75 0.9375 0.0961538
509 5 0.875 0.875 0.0769231
510 5 0.9375 0.9375 0.0769231
511 5 0.9375 0.875 0.0961538
512 5 0.875 0.9375 0.0961538
621 5 0.75 0.75 0.115385
622 5 0.8125 0.8125 0.115385
623 5 0.875 0.75 0.115385
624 5 0.9375 0.8125 0.115385
637 5 0.75 0.875 0.115385
638 5 0.8125 0.9375 0.115385
639 5 0.875 0.875 0.115385
640 5 0.9375 0.9375 0.115385
1286 2 0.11424 0.0184247 0.157369
1305 1 0.00609159 0.116228 0.152094
1306 2 0.0127855 0.145088 0.152491
1308 1 0.115217 0.122248 0.151824
1309 2 0.143637 0.121092 0.149243
1310 2 0.116146 0.13166 0.160471
1311 1 0.243114 0.115055 0.15397
1313 2 0.234166 0.143319 0.153777
1332 1 0.115173 0.243748 0.154859
1333 2 0.142596 0.241621 0.158268
1474 2 0.0113972 0.00867012 0.186299
1477 2 0.117763 0.0200985 0.195817
1498 2 0.0220732 0.124346 0.195365
1500 1 0.125822 0.12353 0.195995
1501 2 0.101534 0.129485 0.191092
1502 2 0.147643 0.121985 0.189836
1503 1 0.238696 0.120675 0.192299
1505 2 0.248817 0.145112 0.188174
1522 2 0.0222561 0.240459 0.192301
1524 1 0.11685 0.241189 0.192787
1525 2 0.142161 0.239993 0.188047
1528 2 0.243467 0.227288 0.193931
1289 2 0.25255 0.0119043 0.160287
1290 1 0.381499 0.00393003 0.156746
1291 2 0.388442 0.00555854 0.147889
1293 1 0.488921 0.00139352 0.152409
1312 2 0.27272 0.116626 0.153791
1314 1 0.376238 0.115142 0.155973
1315 2 0.39296 0.123358 0.148874
1316 2 0.355801 0.1365 0.156692
1317 1 0.493896 0.114666 0.153365
1336 2 0.250958 0.238556 0.147287
1338 1 0.378424 0.244326 0.156962
1342 2 0.490514 0.232682 0.149534
1479 1 0.258353 0.00875705 0.192348
1484 2 0.385333 0.0214838 0.193615
1485 1 0.49484 0.00791194 0.194636
1504 2 0.262487 0.109212 0.196449
1506 1 0.376617 0.114509 0.190519
1507 2 0.361963 0.11914 0.198322
1508 2 0.38642 0.141351 0.188082
1509 1 0.496962 0.121073 0.188911
1511 2 0.491075 0.147484 0.192644
1531 2 0.360969 0.239834 0.187103
1532 2 0.386005 0.249408 0.198942
1295 2 0.50045 0.0149161 0.159714
1298 2 0.62927 0.0238177 0.153562
1318 2 0.502744 0.126839 0.161227
1319 2 0.50336 0.133494 0.146946
1320 1 0.62949 0.122844 0.150452
1321 2 0.601921 0.117795 0.153432
1322 2 0.643589 0.134361 0.157655
1323 1 0.739925 0.118309 0.153703
1324 2 0.748673 0.139298 0.147847
1344 1 0.616759 0.247786 0.151205
1346 2 0.615407 0.240627 0.16005
1348 2 0.73675 0.236087 0.149311
1487 2 0.504922 0.0129483 0.186196
1489 2 0.623605 0.0188881 0.187665
1491 1 0.749909 0.0118462 0.19307
1510 2 0.511963 0.106443 0.195368
1512 1 0.63231 0.117361 0.19412
1513 2 0.632725 0.124293 0.18525
1514 2 0.609965 0.133345 0.197553
1517 2 0.728975 0.112996 0.19245
1534 2 0.501818 0.230331 0.187998
1536 1 0.63182 0.242399 0.190309
1538 2 0.602321 0.245357 0.190122
1283 2 0.979682 0.0131371 0.154147
1300 2 0.763886 0.0183561 0.156161
1302 1 0.866454 0.00779209 0.152748
1303 2 0.895761 0.00991189 0.151521
1307 2 0.981123 0.113684 0.156953
1325 2 0.761402 0.117393 0.159988
1326 1 0.882418 0.130707 0.151485
1327 2 0.885429 0.127758 0.160517
1328 2 0.857152 0.116535 0.149537
1331 2 0.987149 0.231142 0.151355
1350 1 0.875266 0.240706 0.15623
1494 1 0.885328 0.00534727 0.193338
1496 2 0.858198 0.00966808 0.196773
1497 1 0.997253 0.11339 0.191682
1499 2 0.980673 0.137264 0.189877
1515 1 0.751754 0.128471 0.195834
1516 2 0.769271 0.133533 0.188639
1518 1 0.867079 0.115905 0.191995
1519 2 0.896647 0.114155 0.192432
1520 2 0.861274 0.144939 0.192496
1521 1 0.992603 0.240421 0.192312
1540 2 0.759601 0.227822 0.191838
1542 1 0.884364 0.248301 0.194608
1543 2 0.855511 0.245014 0.196455
1329 1 0.00976815 0.250293 0.151649
1330 2 0.00308329 0.268566 0.158535
1334 2 0.117231 0.264632 0.148412
1335 1 0.243852 0.260168 0.153139
1353 1 0.00460021 0.381152 0.156724
1354 2 0.0193258 0.368509 0.149826
1356 1 0.116575 0.366546 0.153228
1357 2 0.146 0.362993 0.153513
1358 2 0.112424 0.395461 0.154798
1359 1 0.239643 0.381216 0.153612
1360 2 0.2441 0.352546 0.151728
1378 2 0.0221943 0.490316 0.15386
1380 1 0.116388 0.493052 0.155355
1381 2 0.144054 0.485246 0.153114
1526 2 0.115989 0.268818 0.196089
1527 1 0.244652 0.256741 0.194927
1545 1 0.010162 0.378844 0.190667
1546 2 0.00716486 0.367229 0.199011
1548 1 0.126656 0.365977 0.189878
1549 2 0.146424 0.386248 0.19259
1550 2 0.101919 0.372774 0.194455
1552 2 0.249071 0.39879 0.193668
1553 2 0.245894 0.35594 0.187889
1571 2 0.0156924 0.481781 0.193187
1572 1 0.133953 0.498229 0.189862
1574 2 0.105087 0.492468 0.188758
1575 1 0.242737 0.491057 0.193449
1337 2 0.25519 0.251275 0.161113
1339 2 0.351542 0.254915 0.154909
1340 2 0.395034 0.250758 0.149667
1361 2 0.266256 0.391238 0.156198
1362 1 0.367968 0.383582 0.152358
1363 2 0.370637 0.355327 0.149715
1364 2 0.386395 0.386091 0.159465
1365 1 0.49248 0.365938 0.154706
1367 2 0.489823 0.38559 0.147922
1384 2 0.256708 0.48208 0.14928
1387 2 0.390566 0.482825 0.156002
1389 1 0.493768 0.492134 0.155928
1529 2 0.261881 0.265972 0.188065
1530 1 0.378025 0.260759 0.190878
1535 2 0.494678 0.260542 0.198812
1551 1 0.255035 0.370271 0.195365
1554 1 0.378846 0.366636 0.194725
1555 2 0.388306 0.371206 0.186193
1556 2 0.357848 0.387158 0.196005
1559 2 0.481819 0.390471 0.191059
1576 2 0.271073 0.489083 0.190829
1578 1 0.36902 0.489493 0.192134
1579 2 0.398301 0.493834 0.191591
1581 1 0.488643 0.495831 0.192205
1341 1 0.506102 0.257097 0.151485
1343 2 0.503384 0.260222 0.16052
1345 2 0.642834 0.261587 0.150283
1347 1 0.742951 0.251714 0.156827
1366 2 0.517697 0.373472 0.15891
1368 1 0.616931 0.366083 0.153427
1369 2 0.646208 0.363617 0.15466
1370 2 0.611861 0.3953 0.153451
1373 2 0.72652 0.372711 0.155527
1390 2 0.517565 0.486725 0.150744
1392 1 0.618321 0.489915 0.153723
1393 2 0.646966 0.493009 0.151565
1533 1 0.503504 0.259127 0.190113
1537 2 0.64086 0.262244 0.196492
1539 1 0.741923 0.250426 0.189537
1541 2 0.748476 0.271752 0.195548
1557 1 0.502465 0.376253 0.195933
1558 2 0.515716 0.358276 0.189931
1560 1 0.618165 0.381192 0.189896
1561 2 0.638663 0.360643 0.188027
1562 2 0.618171 0.383165 0.199
1563 1 0.740453 0.367566 0.192222
1565 2 0.740926 0.396716 0.190555
1582 2 0.512622 0.482327 0.195603
1584 1 0.627678 0.489569 0.194007
1586 2 0.608237 0.494022 0.187255
1587 1 0.748408 0.489462 0.194072
1349 2 0.770299 0.262199 0.1554
1351 2 0.898056 0.257233 0.153363
1352 2 0.851678 0.252061 0.151945
1355 2 0.976074 0.37534 0.154989
1371 1 0.750684 0.385434 0.151971
1372 2 0.772795 0.366854 0.154041
1374 1 0.865501 0.367533 0.15406
1375 2 0.866133 0.395148 0.150742
1376 2 0.893366 0.36232 0.156737
1377 1 0.992542 0.490469 0.153815
1396 2 0.768205 0.49023 0.14996
1398 1 0.87844 0.494952 0.157061
1523 2 0.985141 0.26912 0.19231
1544 2 0.885124 0.256685 0.18586
1547 2 0.982673 0.378927 0.187245
1564 2 0.76862 0.360718 0.194145
1566 1 0.865792 0.377816 0.194564
1567 2 0.864649 0.371334 0.185667
1568 2 0.894559 0.375849 0.196692
1569 1 0.990379 0.494904 0.190681
1590 1 0.867108 0.490824 0.192331
1591 2 0.896667 0.489332 0.191767
1382 2 0.114559 0.521702 0.153069
1383 1 0.249098 0.509698 0.151636
1385 2 0.244194 0.508222 0.160623
1402 2 0.0109551 0.614955 0.159728
1404 1 0.125794 0.625631 0.157557
1405 2 0.111829 0.605111 0.152565
1406 2 0.137376 0.644258 0.151417
1407 1 0.24541 0.613958 0.153272
1409 2 0.231525 0.640044 0.152515
1430 2 0.102088 0.744338 0.15218
1431 1 0.24251 0.740493 0.153831
1573 2 0.13596 0.509303 0.198303
1577 2 0.236189 0.51986 0.192645
1593 1 0.00472937 0.634382 0.194156
1595 2 0.0188493 0.610398 0.191007
1596 1 0.126389 0.632432 0.1894
1597 2 0.116452 0.604494 0.189343
1598 2 0.132159 0.638073 0.19818
1600 2 0.237664 0.605897 0.194869
1618 2 0.00827785 0.747343 0.199262
1622 2 0.135522 0.728271 0.191731
1623 1 0.249147 0.740607 0.189974
1386 1 0.380933 0.510389 0.15441
1388 2 0.353501 0.506786 0.151127
1391 2 0.488667 0.521141 0.154866
1408 2 0.273065 0.620998 0.155751
1410 1 0.384356 0.621134 0.155887
1411 2 0.361407 0.637679 0.158621
1412 2 0.379237 0.616188 0.14703
1413 1 0.492454 0.617225 0.152186
1414 2 0.486199 0.636597 0.158821
1432 2 0.272153 0.740248 0.154066
1434 1 0.386961 0.749401 0.153308
1435 2 0.367149 0.72746 0.152589
1438 2 0.490228 0.738245 0.159625
1580 2 0.357679 0.516673 0.193197
1583 2 0.498735 0.521842 0.189115
1599 1 0.26119 0.62351 0.193651
1601 2 0.251146 0.645593 0.188404
1602 1 0.378796 0.614519 0.190858
1603 2 0.351704 0.626449 0.190324
1604 2 0.394499 0.634032 0.195742
1606 2 0.497162 0.60986 0.186559
1607 2 0.492383 0.634477 0.198751
1625 2 0.271913 0.747697 0.195398
1626 1 0.371451 0.743528 0.195259
1628 2 0.377751 0.733651 0.186877
1394 2 0.609713 0.517076 0.156251
1395 1 0.74115 0.501501 0.151348
1397 2 0.740645 0.508269 0.16023
1415 2 0.521346 0.621178 0.150531
1416 1 0.636559 0.627603 0.154606
1417 2 0.614647 0.646539 0.152644
1418 2 0.623794 0.600858 0.154288
1421 2 0.729879 0.636508 0.156002
1440 1 0.635785 0.744666 0.153442
1585 2 0.639085 0.516409 0.195661
1589 2 0.72812 0.510373 0.192375
1605 1 0.510456 0.630663 0.191613
1608 1 0.630585 0.620853 0.18926
1609 2 0.618126 0.647461 0.190497
1610 2 0.626289 0.606686 0.197166
1611 1 0.745587 0.618574 0.195156
1612 2 0.743197 0.64777 0.193739
1630 2 0.507216 0.734034 0.197451
1633 2 0.610888 0.73581 0.196503
1636 2 0.741115 0.728779 0.194633
1379 2 0.985264 0.519215 0.153864
1399 2 0.895751 0.50482 0.150304
1400 2 0.85081 0.500227 0.154174
1401 1 0.990032 0.61833 0.153346
1403 2 0.999012 0.641715 0.148464
1419 1 0.754497 0.620288 0.156985
1420 2 0.765624 0.618204 0.148552
1422 1 0.872398 0.614383 0.155445
1423 2 0.878216 0.640198 0.159562
1424 2 0.874386 0.620419 0.146532
1426 2 0.985288 0.732487 0.151399
1444 2 0.759813 0.732635 0.149622
1446 1 0.880931 0.741277 0.15202
1448 2 0.851952 0.742576 0.153914
1570 2 0.993929 0.523315 0.193055
1588 2 0.773471 0.500166 0.190476
1592 2 0.861224 0.519843 0.192825
1594 2 0.976421 0.630219 0.19176
1613 2 0.761216 0.608656 0.188028
1614 1 0.868275 0.61494 0.192235
1615 2 0.897126 0.617643 0.190298
1616 2 0.859599 0.642417 0.19439
1619 2 0.992667 0.740683 0.185811
1639 2 0.857092 0.737274 0.189174
1282 2 0.0240656 0.998317 0.153202
1284 1 0.116301 0.991665 0.15349
1285 2 0.144458 0.98991 0.150679
1287 1 0.245352 0.989282 0.154819
1425 1 0.00305141 0.756146 0.150779
1427 2 0.0116604 0.761367 0.159361
1428 1 0.129939 0.753093 0.150582
1429 2 0.142973 0.752569 0.158776
1433 2 0.235337 0.769259 0.153642
1449 1 0.00289989 0.863254 0.153751
1450 2 0.00536204 0.881966 0.160789
1452 1 0.118731 0.866848 0.151883
1453 2 0.143857 0.862607 0.156549
1454 2 0.112412 0.895546 0.153106
1455 1 0.247628 0.863482 0.154727
1457 2 0.228838 0.883765 0.151429
1473 1 0.00761457 0.991758 0.193703
1476 1 0.122123 0.991017 0.194641
1478 2 0.135114 0.988884 0.186465
1480 2 0.247035 0.994819 0.185087
1481 2 0.244612 0.996424 0.199488
1620 1 0.122868 0.751318 0.195951
1621 2 0.11661 0.770411 0.189241
1624 2 0.22894 0.761696 0.191551
1642 2 0.0232463 0.868446 0.191774
1644 1 0.121738 0.867101 0.189671
1645 2 0.116779 0.896331 0.189851
1646 2 0.136483 0.861568 0.197402
1647 1 0.241217 0.867747 0.191049
1649 2 0.244839 0.896685 0.189397
1288 2 0.252098 0.998814 0.146432
1292 2 0.35506 0.990511 0.156903
1436 2 0.37089 0.773139 0.155642
1439 2 0.497988 0.761052 0.147246
1456 2 0.273534 0.877754 0.155383
1458 1 0.364601 0.872066 0.155524
1459 2 0.389863 0.856544 0.155379
1460 2 0.370536 0.89639 0.150635
1462 2 0.491369 0.893964 0.157643
1482 1 0.379835 0.992626 0.194859
1483 2 0.359832 0.98589 0.18845
1627 2 0.375799 0.772821 0.194787
1631 2 0.482576 0.760584 0.188287
1648 2 0.263944 0.860568 0.196478
1650 1 0.368441 0.865472 0.193404
1651 2 0.378463 0.887862 0.19853
1652 2 0.378096 0.871665 0.18499
1653 1 0.492894 0.865823 0.191253
1655 2 0.485159 0.894109 0.192607
1294 2 0.510629 0.98369 0.149415
1296 1 0.614174 0.998663 0.152233
1297 2 0.631557 0.977519 0.155743
1299 1 0.74198 0.998419 0.156592
1301 2 0.744135 0.983225 0.148785
1437 1 0.511783 0.750703 0.154668
1441 2 0.618094 0.755325 0.146895
1442 2 0.621121 0.750009 0.161201
1443 1 0.738316 0.75011 0.152875
1461 1 0.504737 0.867777 0.156455
1463 2 0.503895 0.863259 0.147441
1464 1 0.617574 0.865443 0.153865
1465 2 0.647227 0.865392 0.153861
1466 2 0.610199 0.894165 0.153812
1467 1 0.741013 0.878269 0.156129
1468 2 0.742499 0.854154 0.150839
1486 2 0.500238 0.97914 0.196091
1488 1 0.627782 0.990628 0.190112
1490 2 0.623614 0.990484 0.199146
1492 2 0.728313 0.992115 0.194566
1629 1 0.510208 0.755382 0.191185
1632 1 0.617721 0.7539 0.189585
1634 2 0.646391 0.760289 0.190835
1654 2 0.521948 0.865069 0.193064