ITEM: TIMESTEP
0
ITEM: NUMBER OF ATOMS
66
ITEM: BOX BOUNDS pp pp pp
-1.2000000000000000e+01 1.2000000000000000e+01
-1.2000000000000000e+01 1.2000000000000000e+01
-1.2000000000000000e+01 1.2000000000000000e+01
ITEM: ATOMS id type xs ys zs
6 4 0.0152693 0.498215 0.496316
7 5 0.0344845 0.540846 0.497238
8 5 0.000110542 0.487467 0.539176
9 3 0.0555 0.458702 0.477781
10 4 0.0979715 0.44767 0.517413
11 5 0.0800639 0.44035 0.559906
12 5 0.118217 0.40845 0.501845
13 4 0.140159 0.495255 0.518947
14 5 0.156801 0.503793 0.47615
15 5 0.120827 0.534299 0.535911
16 3 0.183804 0.477248 0.554975
17 4 0.22768 0.516561 0.560345
18 5 0.211341 0.560183 0.563328
19 5 0.248793 0.50486 0.600427
20 4 0.268269 0.511252 0.51165
21 5 0.286192 0.468163 0.509886
22 5 0.247173 0.520682 0.471015
23 3 0.311145 0.55111 0.521732
61 5 0.00996738 0.457684 0.424268
62 4 0.0277036 0.496564 0.504708
63 5 0.00592446 0.507121 0.544734
64 5 0.0442914 0.535901 0.485665
65 7 0.0715759 0.458386 0.51504
66 6 0.0979751 0.477451 0.538561
24 4 0.353246 0.551467 0.480183
25 5 0.335012 0.547974 0.437356
26 5 0.373963 0.593134 0.485156
27 4 0.395078 0.50466 0.490494
28 5 0.413024 0.507911 0.53349
29 5 0.375056 0.462728 0.485421
30 3 0.437756 0.511679 0.449777
31 4 0.480166 0.470561 0.452764
32 5 0.462161 0.427918 0.458783
33 5 0.501446 0.472984 0.411152
34 4 0.521252 0.484209 0.499379
35 5 0.537537 0.527727 0.494608
36 5 0.50117 0.479912 0.541374
37 3 0.565494 0.444918 0.494129
38 4 0.60772 0.451362 0.535044
39 5 0.589507 0.459338 0.577274
40 5 0.630108 0.410267 0.535027
41 4 0.647566 0.49819 0.518733
42 5 0.66511 0.490646 0.476112
43 5 0.625989 0.539656 0.519261
1 6 0.947752 0.574073 0.45778
2 7 0.928912 0.539244 0.464713
3 4 0.967484 0.496026 0.454337
4 5 0.942987 0.456513 0.459294
5 5 0.984198 0.498594 0.41077
44 3 0.69091 0.49761 0.559349
45 4 0.732375 0.538773 0.550132
46 5 0.713471 0.579563 0.537587
47 5 0.753519 0.543287 0.591633
48 4 0.773954 0.519013 0.506224
49 5 0.792634 0.47804 0.518636
50 5 0.753474 0.514443 0.464447
51 3 0.815997 0.560894 0.503549
52 4 0.858421 0.549193 0.464024
53 5 0.840499 0.533084 0.424054
54 5 0.878898 0.590604 0.45657
55 4 0.900399 0.507816 0.487938
56 5 0.916694 0.522972 0.529001
57 5 0.881089 0.465648 0.493792
58 3 0.944396 0.504378 0.448184
59 4 0.987908 0.467696 0.464313
60 5 0.971084 0.428481 0.483227
ITEM: TIMESTEP
10
ITEM: NUMBER OF ATOMS
66
ITEM: BOX BOUNDS pp pp pp
-1.2000000000000000e+01 1.2000000000000000e+01
-1.2000000000000000e+01 1.2000000000000000e+01
-1.2000000000000000e+01 1.2000000000000000e+01
ITEM: ATOMS id type xs ys zs
6 4 -0.000691239 0.503736 0.486717
7 5 0.0282133 0.544119 0.504573
8 5 -0.00208075 0.480478 0.537287
9 3 0.054167 0.457972 0.471287
10 4 0.109635 0.442879 0.518155
11 5 0.0800911 0.440313 0.559978
12 5 0.118218 0.408449 0.501845
13 4 0.140162 0.495256 0.518947
14 5 0.156801 0.503793 0.47615
15 5 0.120827 0.534299 0.535911
16 3 0.183804 0.477248 0.554975
17 4 0.22768 0.516561 0.560345
18 5 0.211341 0.560183 0.563328
19 5 0.248793 0.50486 0.600427
20 4 0.268269 0.511252 0.51165
21 5 0.286192 0.468163 0.509886
22 5 0.247173 0.520682 0.471015
23 3 0.311145 0.55111 0.521732
61 5 0.00997501 0.457671 0.424265
62 4 0.0445163 0.494408 0.51624
63 5 0.00798555 0.514075 0.546717
64 5 0.0505569 0.532766 0.478297
65 7 0.0614098 0.463648 0.520425
66 6 0.0979751 0.477451 0.538561
24 4 0.353246 0.551467 0.480183
25 5 0.335012 0.547974 0.437356
26 5 0.373963 0.593134 0.485155
27 4 0.395079 0.50466 0.490494
28 5 0.413024 0.507911 0.53349
29 5 0.375056 0.462728 0.485421
30 3 0.437756 0.511679 0.449777
31 4 0.480166 0.470561 0.452764
32 5 0.462161 0.427918 0.458783
33 5 0.501446 0.472984 0.411152
34 4 0.521252 0.484209 0.499379
35 5 0.537537 0.527727 0.494608
36 5 0.50117 0.479912 0.541374
37 3 0.565494 0.444918 0.494129
38 4 0.60772 0.451362 0.535044
39 5 0.589507 0.459338 0.577274
40 5 0.630108 0.410267 0.535027
41 4 0.647566 0.49819 0.518733
42 5 0.66511 0.490646 0.476112
43 5 0.625989 0.539656 0.519261
1 6 0.947752 0.574074 0.45778
2 7 0.929066 0.545952 0.467311
3 4 0.978852 0.503534 0.455328
4 5 0.942812 0.456481 0.45927
5 5 0.984198 0.498602 0.410762
44 3 0.69091 0.49761 0.559349
45 4 0.732375 0.538772 0.550132
46 5 0.713471 0.579563 0.537587
47 5 0.753519 0.543287 0.591633
48 4 0.773954 0.519013 0.506224
49 5 0.792634 0.47804 0.518636
50 5 0.753474 0.514443 0.464447
51 3 0.815997 0.560894 0.503549
52 4 0.858402 0.549195 0.464024
53 5 0.840499 0.533084 0.424054
54 5 0.878897 0.590605 0.45657
55 4 0.899428 0.506646 0.488689
56 5 0.916693 0.522972 0.529003
57 5 0.881089 0.465648 0.493792
58 3 0.927818 0.503125 0.440266
59 4 0.993196 0.45278 0.466212
60 5 0.971098 0.428464 0.483241
ITEM: TIMESTEP
20
ITEM: NUMBER OF ATOMS
66
ITEM: BOX BOUNDS pp pp pp
-1.2000000000000000e+01 1.2000000000000000e+01
-1.2000000000000000e+01 1.2000000000000000e+01
-1.2000000000000000e+01 1.2000000000000000e+01
ITEM: ATOMS id type xs ys zs
6 4 0.983764 0.515114 0.483753
7 5 0.0113302 0.557232 0.50184
8 5 0.973974 0.478029 0.525801
9 3 0.0793309 0.460092 0.453292
10 4 0.124951 0.435266 0.520478
11 5 0.0961996 0.428494 0.563777
12 5 0.118957 0.400814 0.49718
13 4 0.149561 0.496437 0.518731
14 5 0.157497 0.504065 0.474808
15 5 0.124414 0.534383 0.53578
16 3 0.184732 0.477327 0.555493
17 4 0.22775 0.516428 0.560447
18 5 0.2114 0.560154 0.563401
19 5 0.248889 0.505058 0.600398
20 4 0.268382 0.511317 0.511636
21 5 0.286107 0.46816 0.509892
22 5 0.24716 0.520631 0.471074
23 3 0.311073 0.55107 0.521836
61 5 0.00696967 0.445113 0.422452
62 4 0.0533337 0.496323 0.529361
63 5 0.0184268 0.518912 0.558157
64 5 0.0647171 0.5249 0.482088
65 7 0.0500396 0.480589 0.538494
66 6 0.0969844 0.47678 0.538509
24 4 0.353179 0.551574 0.480354
25 5 0.335087 0.548042 0.437374
26 5 0.374058 0.593058 0.484939
27 4 0.39511 0.504674 0.490459
28 5 0.412963 0.50792 0.533481
29 5 0.37505 0.462789 0.485443
30 3 0.437677 0.511757 0.449818
31 4 0.480106 0.470723 0.452648
32 5 0.462238 0.427932 0.458713
33 5 0.501541 0.472772 0.411244
34 4 0.521339 0.484158 0.499385
35 5 0.53745 0.527723 0.494606
36 5 0.501144 0.479956 0.541301
37 3 0.565405 0.444914 0.494051
38 4 0.607708 0.451262 0.534904
39 5 0.589557 0.459269 0.577253
40 5 0.630183 0.410363 0.53521
41 4 0.647652 0.49821 0.518787
42 5 0.665024 0.49064 0.476112
43 5 0.625967 0.539581 0.519222
1 6 0.947709 0.576464 0.455165
2 7 0.951729 0.567539 0.469528
3 4 0.976031 0.514443 0.452627
4 5 0.94335 0.466447 0.460678
5 5 0.983561 0.50538 0.408546
44 3 0.690833 0.497505 0.559342
45 4 0.7323 0.538627 0.550281
46 5 0.713547 0.579562 0.537656
47 5 0.753612 0.543483 0.59151
48 4 0.773808 0.519064 0.506273
49 5 0.792475 0.478044 0.518664
50 5 0.753459 0.514433 0.46451
51 3 0.815189 0.561147 0.503966
52 4 0.853164 0.549556 0.464303
53 5 0.838421 0.533556 0.423483
54 5 0.874778 0.590859 0.456176
55 4 0.882871 0.505266 0.493574
56 5 0.913654 0.520734 0.529523
57 5 0.878483 0.460275 0.495984
58 3 0.901303 0.495824 0.419224
59 4 1.00128 0.42378 0.463268
60 5 0.970715 0.419407 0.493823
ITEM: TIMESTEP
30
ITEM: NUMBER OF ATOMS
66
ITEM: BOX BOUNDS pp pp pp
-1.2000000000000000e+01 1.2000000000000000e+01
-1.2000000000000000e+01 1.2000000000000000e+01
-1.2000000000000000e+01 1.2000000000000000e+01
ITEM: ATOMS id type xs ys zs
6 4 0.996523 0.522009 0.473843
7 5 0.0127012 0.557642 0.499983
8 5 0.971975 0.497173 0.516945
9 3 0.074791 0.470565 0.454471
10 4 0.122486 0.435447 0.507311
11 5 0.11086 0.423378 0.553722
12 5 0.124925 0.393136 0.489632
13 4 0.15331 0.494094 0.516526
14 5 0.161384 0.504455 0.472143
15 5 0.131701 0.531924 0.535801
16 3 0.18879 0.476216 0.557209
17 4 0.22921 0.51686 0.560879
18 5 0.211652 0.560073 0.563734
19 5 0.249936 0.505854 0.600959
20 4 0.268849 0.511413 0.511638
21 5 0.28594 0.468045 0.509963
22 5 0.247212 0.520577 0.471266
23 3 0.311073 0.551187 0.522227
61 5 -0.00134152 0.435927 0.423502
62 4 0.0458465 0.481245 0.540727
63 5 0.0239001 0.517629 0.562601
64 5 0.0686603 0.519649 0.512849
65 7 0.0532815 0.478893 0.564232
66 6 0.0939684 0.475155 0.541679
24 4 0.353067 0.551809 0.48059
25 5 0.335252 0.54815 0.437559
26 5 0.37457 0.593006 0.484352
27 4 0.395005 0.504851 0.49047
28 5 0.412785 0.508001 0.533505
29 5 0.374973 0.46297 0.485461
30 3 0.437495 0.5121 0.449805
31 4 0.480013 0.470942 0.452438
32 5 0.462422 0.428106 0.458599
33 5 0.502048 0.472198 0.411357
34 4 0.521314 0.48413 0.499241
35 5 0.537209 0.527757 0.494528
36 5 0.500999 0.480024 0.541083
37 3 0.56525 0.444756 0.493761
38 4 0.607662 0.451068 0.534695
39 5 0.589659 0.459142 0.577042
40 5 0.630631 0.410494 0.535714
41 4 0.647628 0.498091 0.518815
42 5 0.66478 0.490555 0.47607
43 5 0.625832 0.539378 0.519165
1 6 0.943493 0.584521 0.444979
2 7 0.950917 0.572202 0.464466
3 4 0.970806 0.534359 0.437712
4 5 0.959956 0.499411 0.460217
5 5 0.986703 0.509252 0.402824
44 3 0.69056 0.497058 0.559564
45 4 0.731699 0.538433 0.550835
46 5 0.713637 0.579472 0.537832
47 5 0.754098 0.544055 0.591342
48 4 0.772349 0.518993 0.506802
49 5 0.791337 0.478113 0.519068
50 5 0.753004 0.514454 0.464587
51 3 0.811792 0.562505 0.505637
52 4 0.848147 0.550166 0.463058
53 5 0.834384 0.534364 0.421932
54 5 0.871036 0.590594 0.455951
55 4 0.880575 0.498568 0.48573
56 5 0.904017 0.518405 0.52304
57 5 0.871638 0.456173 0.498775
58 3 0.910153 0.454408 0.43543
59 4 0.992909 0.427142 0.471569
60 5 0.957217 0.412676 0.492651
ITEM: TIMESTEP
40
ITEM: NUMBER OF ATOMS
66
ITEM: BOX BOUNDS pp pp pp
-1.2000000000000000e+01 1.2000000000000000e+01
-1.2000000000000000e+01 1.2000000000000000e+01
-1.2000000000000000e+01 1.2000000000000000e+01
ITEM: ATOMS id type xs ys zs
6 4 0.0248146 0.532057 0.470116
7 5 0.0364598 0.570759 0.492906
8 5 0.985891 0.519267 0.493097
9 3 0.0710622 0.484692 0.459526
10 4 0.113691 0.444301 0.491554
11 5 0.11173 0.428482 0.535106
12 5 0.130824 0.405984 0.470475
13 4 0.153 0.489829 0.511121
14 5 0.170125 0.504931 0.470684
15 5 0.131896 0.525648 0.532458
16 3 0.191266 0.472705 0.553305
17 4 0.230747 0.516212 0.561873
18 5 0.212032 0.559044 0.563994
19 5 0.253088 0.507863 0.601972
20 4 0.270053 0.511732 0.512238
21 5 0.286339 0.468039 0.51028
22 5 0.248148 0.521073 0.472064
23 3 0.311968 0.551898 0.522782
61 5 0.998438 0.429984 0.449873
62 4 0.0128378 0.462066 0.554013
63 5 0.0115783 0.508706 0.564047
64 5 0.0504713 0.489999 0.544059
65 7 0.0609184 0.464207 0.587257
66 6 0.0911853 0.473922 0.55484
24 4 0.353474 0.552395 0.480659
25 5 0.335216 0.548215 0.437883
26 5 0.375845 0.593213 0.483344
27 4 0.395009 0.505238 0.490431
28 5 0.412471 0.508316 0.533602
29 5 0.374677 0.463509 0.485358
30 3 0.437504 0.512509 0.449582
31 4 0.480076 0.471135 0.451995
32 5 0.462378 0.428443 0.458631
33 5 0.503085 0.471426 0.411416
34 4 0.521203 0.484077 0.498855
35 5 0.536824 0.52781 0.494174
36 5 0.500551 0.479976 0.540526
37 3 0.565108 0.444392 0.49337
38 4 0.607584 0.450549 0.534461
39 5 0.589451 0.459075 0.576631
40 5 0.631557 0.410573 0.536407
41 4 0.647278 0.497671 0.518891
42 5 0.664357 0.490177 0.476096
43 5 0.625327 0.538865 0.519224
1 6 0.930963 0.600193 0.434163
2 7 0.955211 0.583524 0.455155
3 4 0.989663 0.548528 0.422727
4 5 0.957162 0.515934 0.428079
5 5 0.982496 0.514812 0.391347
44 3 0.689673 0.496522 0.560419
45 4 0.730628 0.53855 0.55195
46 5 0.712727 0.579445 0.538434
47 5 0.754656 0.544948 0.591427
48 4 0.77043 0.519067 0.507285
49 5 0.788041 0.478173 0.520613
50 5 0.750684 0.514129 0.465343
51 3 0.812518 0.559254 0.502636
52 4 0.850194 0.54008 0.460645
53 5 0.828741 0.531649 0.420133
54 5 0.868146 0.583116 0.457141
55 4 0.885495 0.487573 0.486247
56 5 0.904257 0.512126 0.520707
57 5 0.856777 0.455593 0.504044
58 3 0.928844 0.447485 0.466895
59 4 0.982632 0.430912 0.495143
60 5 0.949175 0.398821 0.500377
ITEM: TIMESTEP
50
ITEM: NUMBER OF ATOMS
66
ITEM: BOX BOUNDS pp pp pp
-1.2000000000000000e+01 1.2000000000000000e+01
-1.2000000000000000e+01 1.2000000000000000e+01
-1.2000000000000000e+01 1.2000000000000000e+01
ITEM: ATOMS id type xs ys zs
6 4 0.0368234 0.532891 0.462764
7 5 0.0606282 0.568929 0.481039
8 5 0.00266577 0.523067 0.491596
9 3 0.0709276 0.483833 0.446999
10 4 0.112344 0.452344 0.4818
11 5 0.0939357 0.426559 0.515864
12 5 0.137565 0.424359 0.454581
13 4 0.152305 0.494739 0.507458
14 5 0.175025 0.511461 0.470573
15 5 0.128944 0.529633 0.527391
16 3 0.189869 0.472139 0.548779
17 4 0.231173 0.51378 0.561024
18 5 0.210974 0.555809 0.56331
19 5 0.253143 0.50571 0.601447
20 4 0.273481 0.512609 0.513691
21 5 0.290168 0.469106 0.510945
22 5 0.25336 0.523218 0.472986
23 3 0.31524 0.553111 0.525041
61 5 0.00576961 0.423593 0.476453
62 4 0.998151 0.46287 0.558956
63 5 0.975544 0.502017 0.570342
64 5 0.0362983 0.479637 0.540685
65 7 0.0436584 0.443585 0.592565
66 6 0.0785412 0.463588 0.577547
24 4 0.354901 0.553842 0.480812
25 5 0.33493 0.548837 0.438877
26 5 0.378194 0.59424 0.481413
27 4 0.395846 0.506219 0.48982
28 5 0.412865 0.508971 0.533189
29 5 0.374563 0.464989 0.48461
30 3 0.438351 0.512873 0.448769
31 4 0.480369 0.470867 0.451214
32 5 0.461921 0.428576 0.458271
33 5 0.503962 0.470213 0.410968
34 4 0.52128 0.483541 0.498141
35 5 0.536671 0.527356 0.493422
36 5 0.499891 0.479599 0.539442
37 3 0.565209 0.443617 0.493108
38 4 0.607199 0.449696 0.534792
39 5 0.588296 0.458256 0.576584
40 5 0.631911 0.410189 0.537371
41 4 0.646324 0.497277 0.519844
42 5 0.663696 0.489273 0.47725
43 5 0.623387 0.537894 0.519202
1 6 0.928987 0.601064 0.426077
2 7 0.968729 0.602564 0.436349
3 4 0.99719 0.553307 0.418303
4 5 0.956484 0.530707 0.426165
5 5 0.997665 0.527237 0.378419
44 3 0.687806 0.498251 0.56252
45 4 0.728876 0.540056 0.552971
46 5 0.710393 0.580869 0.539787
47 5 0.754247 0.546968 0.591512
48 4 0.767018 0.517209 0.507864
49 5 0.780095 0.474592 0.521577
50 5 0.744935 0.51341 0.466959
51 3 0.812386 0.555258 0.502111
52 4 0.85379 0.534936 0.463961
53 5 0.834067 0.518277 0.425022
54 5 0.879927 0.571807 0.45183
55 4 0.886986 0.488836 0.496266
56 5 0.903232 0.511813 0.533387
57 5 0.856899 0.456369 0.510696
58 3 0.931535 0.457791 0.471403
59 4 0.971656 0.42864 0.50787
60 5 0.957451 0.386524 0.520101
ITEM: TIMESTEP
60
ITEM: NUMBER OF ATOMS
66
ITEM: BOX BOUNDS pp pp pp
-1.2000000000000000e+01 1.2000000000000000e+01
-1.2000000000000000e+01 1.2000000000000000e+01
-1.2000000000000000e+01 1.2000000000000000e+01
ITEM: ATOMS id type xs ys zs
6 4 0.0428703 0.53943 0.452181
7 5 0.0760057 0.571119 0.459576
8 5 0.0179988 0.534296 0.491453
9 3 0.0701259 0.488453 0.436258
10 4 0.109321 0.460348 0.471515
11 5 0.0895785 0.431998 0.502634
12 5 0.137641 0.434522 0.445197
13 4 0.147951 0.500741 0.503917
14 5 0.17255 0.521789 0.470856
15 5 0.122465 0.532496 0.526267
16 3 0.185144 0.474414 0.542677
17 4 0.229252 0.512321 0.558762
18 5 0.212872 0.555782 0.563817
19 5 0.247125 0.498216 0.599484
20 4 0.275283 0.513129 0.514885
21 5 0.293726 0.470349 0.512848
22 5 0.25654 0.523152 0.473378
23 3 0.317429 0.553742 0.527162
61 5 0.00302658 0.411589 0.487073
62 4 0.996164 0.459344 0.56383
63 5 0.964829 0.485342 0.586886
64 5 0.0306041 0.487052 0.548821
65 7 0.0238908 0.425692 0.602011
66 6 0.0604702 0.441781 0.601637
24 4 0.356655 0.555813 0.481971
25 5 0.33531 0.551 0.440729
26 5 0.380249 0.59608 0.481681
27 4 0.397961 0.508014 0.488521
28 5 0.415945 0.50955 0.531556
29 5 0.376122 0.467178 0.482829
30 3 0.440091 0.513602 0.446819
31 4 0.480741 0.470084 0.4496
32 5 0.461015 0.428428 0.456998
33 5 0.504677 0.46822 0.409584
34 4 0.521347 0.4821 0.496959
35 5 0.537013 0.525794 0.492103
36 5 0.499526 0.478592 0.538064
37 3 0.565059 0.441797 0.493438
38 4 0.605788 0.448537 0.536382
39 5 0.585553 0.455974 0.577776
40 5 0.631398 0.409618 0.539037
41 4 0.644088 0.497242 0.522361
42 5 0.6631 0.488219 0.480741
43 5 0.619489 0.536776 0.519203
1 6 0.941991 0.609906 0.423142
2 7 0.981195 0.610039 0.412837
3 4 0.999693 0.555765 0.40791
4 5 0.961898 0.531001 0.418657
5 5 1.0163 0.549987 0.365253
44 3 0.6852 0.501261 0.565374
45 4 0.727946 0.541151 0.553392
46 5 0.709539 0.581563 0.539169
47 5 0.753308 0.54889 0.591816
48 4 0.765748 0.518586 0.507298
49 5 0.777592 0.475304 0.519803
50 5 0.742298 0.516657 0.467067
51 3 0.813503 0.552776 0.498885
52 4 0.856333 0.525553 0.467406
53 5 0.840492 0.503337 0.429508
54 5 0.885752 0.558889 0.453767
55 4 0.88631 0.485702 0.506752
56 5 0.89852 0.511635 0.543579
57 5 0.85623 0.453035 0.521214
58 3 0.934005 0.458313 0.48148
59 4 0.970108 0.425164 0.515921
60 5 0.948702 0.38717 0.532378
ITEM: TIMESTEP
70
ITEM: NUMBER OF ATOMS
66
ITEM: BOX BOUNDS pp pp pp
-1.2000000000000000e+01 1.2000000000000000e+01
-1.2000000000000000e+01 1.2000000000000000e+01
-1.2000000000000000e+01 1.2000000000000000e+01
ITEM: ATOMS id type xs ys zs
6 4 0.0447534 0.541658 0.448855
7 5 0.0768562 0.575696 0.450112
8 5 0.0233467 0.539394 0.490073
9 3 0.0690147 0.488528 0.434578
10 4 0.109744 0.462196 0.470728
11 5 0.0888082 0.434749 0.502176
12 5 0.137686 0.435296 0.444594
13 4 0.146958 0.504134 0.501734
14 5 0.17024 0.529026 0.469837
15 5 0.119889 0.532967 0.52648
16 3 0.184577 0.476137 0.539048
17 4 0.228264 0.5121 0.558255
18 5 0.212455 0.555503 0.564808
19 5 0.245482 0.496389 0.598693
20 4 0.274712 0.512239 0.514464
21 5 0.293162 0.469374 0.513561
22 5 0.256043 0.521126 0.472637
23 3 0.3166 0.552961 0.526856
61 5 0.00183385 0.409192 0.490316
62 4 0.995598 0.457135 0.567769
63 5 0.963529 0.48103 0.591736
64 5 0.0280578 0.486833 0.552688
65 7 0.0229291 0.418984 0.604063
66 6 0.0606733 0.432428 0.61149
24 4 0.356661 0.556245 0.482458
25 5 0.336061 0.552973 0.440689
26 5 0.379782 0.596741 0.484335
27 4 0.398384 0.508556 0.488032
28 5 0.417069 0.510091 0.530761
29 5 0.376543 0.46767 0.482695
30 3 0.440443 0.513816 0.446036
31 4 0.48076 0.469809 0.448737
32 5 0.46032 0.428466 0.455939
33 5 0.504874 0.467613 0.408839
34 4 0.521404 0.481199 0.496323
35 5 0.537434 0.52475 0.491432
36 5 0.499087 0.47808 0.537186
37 3 0.565174 0.440755 0.493879
38 4 0.60555 0.447954 0.537239
39 5 0.584643 0.455404 0.578299
40 5 0.631329 0.409176 0.540472
41 4 0.643757 0.496975 0.523269
42 5 0.6625 0.488201 0.481459
43 5 0.618942 0.536376 0.520405
1 6 0.944864 0.615182 0.42302
2 7 0.984181 0.613282 0.412795
3 4 0.0014233 0.556758 0.404489
4 5 0.965518 0.527346 0.407294
5 5 0.0199918 0.550823 0.36234
44 3 0.685191 0.502382 0.565887
45 4 0.727861 0.542051 0.552722
46 5 0.709399 0.582637 0.538944
47 5 0.754041 0.549831 0.59056
48 4 0.764798 0.518425 0.506427
49 5 0.776252 0.474723 0.518152
50 5 0.741172 0.517342 0.466187
51 3 0.813371 0.552502 0.498636
52 4 0.857113 0.524 0.469379
53 5 0.840438 0.500041 0.432966
54 5 0.888214 0.555082 0.453797
55 4 0.887096 0.484561 0.509437
56 5 0.8993 0.509903 0.546635
57 5 0.858401 0.450505 0.523352
58 3 0.935116 0.461297 0.482532
59 4 0.968311 0.426118 0.518234
60 5 0.942676 0.390683 0.534269
ITEM: TIMESTEP
80
ITEM: NUMBER OF ATOMS
66
ITEM: BOX BOUNDS pp pp pp
-1.2000000000000000e+01 1.2000000000000000e+01
-1.2000000000000000e+01 1.2000000000000000e+01
-1.2000000000000000e+01 1.2000000000000000e+01
ITEM: ATOMS id type xs ys zs
6 4 0.0457701 0.541793 0.445907
7 5 0.0793741 0.57397 0.446397
8 5 0.0250425 0.541009 0.487725
9 3 0.0698747 0.48853 0.432564
10 4 0.109182 0.464022 0.470779
11 5 0.0872209 0.437761 0.50245
12 5 0.13831 0.436401 0.447029
13 4 0.145261 0.506392 0.501917
14 5 0.167801 0.53244 0.470365
15 5 0.118375 0.534595 0.52766
16 3 0.18298 0.477338 0.537909
17 4 0.227685 0.512058 0.556927
18 5 0.213022 0.555827 0.563707
19 5 0.244105 0.495389 0.597318
20 4 0.274021 0.511116 0.513329
21 5 0.29232 0.468179 0.513523
22 5 0.255869 0.519249 0.471086
23 3 0.315668 0.552105 0.526289
61 5 0.00104169 0.406339 0.493443
62 4 0.996048 0.454892 0.569699
63 5 0.964837 0.477187 0.596097
64 5 0.0267566 0.486332 0.554261
65 7 0.0241669 0.414342 0.60299
66 6 0.0600799 0.428817 0.615135
24 4 0.356384 0.556733 0.482903
25 5 0.336662 0.555185 0.440635
26 5 0.379527 0.597047 0.486866
27 4 0.398212 0.508854 0.487927
28 5 0.417136 0.510703 0.530542
29 5 0.376192 0.467994 0.483078
30 3 0.440259 0.513701 0.445821
31 4 0.48059 0.469536 0.44808
32 5 0.460048 0.428152 0.454752
33 5 0.504573 0.467818 0.408071
34 4 0.521384 0.480338 0.495808
35 5 0.53783 0.52372 0.490869
36 5 0.498772 0.477583 0.536526
37 3 0.565214 0.43983 0.494431
38 4 0.6054 0.447841 0.538021
39 5 0.584204 0.455726 0.578848
40 5 0.631436 0.40932 0.542011
41 4 0.643472 0.496869 0.523891
42 5 0.661731 0.488719 0.481723
43 5 0.618499 0.536234 0.521916
1 6 0.945342 0.613669 0.423229
2 7 0.984113 0.613407 0.411269
3 4 0.00250046 0.557636 0.402248
4 5 0.966595 0.527965 0.404594
5 5 0.0216108 0.553887 0.359885
44 3 0.685775 0.502181 0.565887
45 4 0.728164 0.541925 0.552056
46 5 0.709396 0.582228 0.537892
47 5 0.754845 0.550412 0.589386
48 4 0.765086 0.518401 0.505767
49 5 0.775676 0.474197 0.516411
50 5 0.741869 0.518845 0.465301
51 3 0.813988 0.552098 0.499554
52 4 0.857669 0.523942 0.470249
53 5 0.840701 0.498439 0.43502
54 5 0.887597 0.555117 0.452743
55 4 0.888598 0.485611 0.51089
56 5 0.897724 0.510337 0.54936
57 5 0.860884 0.449934 0.522556
58 3 0.938564 0.465059 0.485682
59 4 0.968015 0.426029 0.519967
60 5 0.939606 0.392092 0.534918
ITEM: TIMESTEP
90
ITEM: NUMBER OF ATOMS
66
ITEM: BOX BOUNDS pp pp pp
-1.2000000000000000e+01 1.2000000000000000e+01
-1.2000000000000000e+01 1.2000000000000000e+01
-1.2000000000000000e+01 1.2000000000000000e+01
ITEM: ATOMS id type xs ys zs
6 4 0.0465175 0.54255 0.443935
7 5 0.0798008 0.575279 0.444493
8 5 0.0263567 0.54077 0.486015
9 3 0.0708597 0.489244 0.430976
10 4 0.108674 0.464714 0.470797
11 5 0.08544 0.439259 0.502206
12 5 0.137937 0.436506 0.44791
13 4 0.144158 0.507239 0.502465
14 5 0.16709 0.533639 0.471498
15 5 0.116371 0.534729 0.527984
16 3 0.181877 0.478031 0.538592
17 4 0.227417 0.512328 0.556301
18 5 0.21363 0.556456 0.562714
19 5 0.24396 0.495887 0.596718
20 4 0.273779 0.51047 0.512634
21 5 0.29207 0.467552 0.513064
22 5 0.255547 0.5183 0.47041
23 3 0.315113 0.551451 0.525876
61 5 -0.000508197 0.405068 0.493907
62 4 0.997002 0.452905 0.571359
63 5 0.96511 0.473155 0.598771
64 5 0.0270214 0.485671 0.557175
65 7 0.0261236 0.411538 0.602392
66 6 0.0601346 0.427673 0.617718
24 4 0.356551 0.556791 0.483064
25 5 0.337383 0.556083 0.440505
26 5 0.379481 0.597109 0.488259
27 4 0.398144 0.508875 0.488014
28 5 0.417186 0.510539 0.530589
29 5 0.375987 0.4681 0.483089
30 3 0.440273 0.513592 0.445795
31 4 0.480456 0.469432 0.44783
32 5 0.459917 0.428011 0.454143
33 5 0.504543 0.467996 0.407899
34 4 0.521216 0.480027 0.495671
35 5 0.537878 0.523335 0.490687
36 5 0.498432 0.477455 0.536323
37 3 0.565171 0.439484 0.494697
38 4 0.605142 0.447847 0.538349
39 5 0.583734 0.456067 0.578994
40 5 0.631209 0.409405 0.542855
41 4 0.643266 0.496955 0.524234
42 5 0.661042 0.489343 0.48177
43 5 0.618421 0.53644 0.5231
1 6 0.945323 0.612421 0.424121
2 7 0.983343 0.613304 0.410108
3 4 0.00306743 0.558159 0.400079
4 5 0.967519 0.528032 0.402012
5 5 0.022059 0.555542 0.357431
44 3 0.686088 0.501442 0.565609
45 4 0.728236 0.541546 0.55162
46 5 0.709136 0.58167 0.537304
47 5 0.754743 0.550281 0.589039
48 4 0.765361 0.518624 0.50509
49 5 0.776071 0.474348 0.515154
50 5 0.742036 0.519515 0.464694
51 3 0.814277 0.552191 0.49953
52 4 0.858283 0.52396 0.470681
53 5 0.841691 0.497971 0.435628
54 5 0.888452 0.554921 0.453172
55 4 0.889117 0.486242 0.511685
56 5 0.897946 0.510838 0.550378
57 5 0.861577 0.450196 0.522807
58 3 0.939998 0.466707 0.487012
59 4 0.967911 0.426131 0.521
60 5 0.937505 0.394058 0.536153
ITEM: TIMESTEP
100
ITEM: NUMBER OF ATOMS
66
ITEM: BOX BOUNDS pp pp pp
-1.2000000000000000e+01 1.2000000000000000e+01
-1.2000000000000000e+01 1.2000000000000000e+01
-1.2000000000000000e+01 1.2000000000000000e+01
ITEM: ATOMS id type xs ys zs
6 4 0.046856 0.543314 0.441781
7 5 0.0791806 0.576928 0.442688
8 5 0.0262976 0.541087 0.483597
9 3 0.0733842 0.491154 0.428186
10 4 0.108347 0.465733 0.469953
11 5 0.0823503 0.441146 0.499851
12 5 0.137998 0.436323 0.449113
13 4 0.1433 0.507653 0.503068
14 5 0.166046 0.53479 0.472661
15 5 0.114926 0.534563 0.528524
16 3 0.1809 0.478699 0.539218
17 4 0.227016 0.512932 0.556004
18 5 0.213676 0.557311 0.561766
19 5 0.244011 0.497188 0.59654
20 4 0.273051 0.510025 0.512151
21 5 0.291014 0.466953 0.512875
22 5 0.254992 0.51785 0.469842
23 3 0.314647 0.550909 0.525414
61 5 -0.00127942 0.403773 0.495316
62 4 0.997677 0.450834 0.573131
63 5 0.966504 0.468791 0.602742
64 5 0.0256364 0.48555 0.559174
65 7 0.0289066 0.40875 0.601002
66 6 0.059616 0.425538 0.621592
24 4 0.356582 0.556538 0.483118
25 5 0.337919 0.556565 0.440324
26 5 0.379723 0.596624 0.489166
27 4 0.398149 0.508495 0.487885
28 5 0.416992 0.509975 0.530537
29 5 0.375927 0.467803 0.48278
30 3 0.440218 0.513561 0.445879
31 4 0.480511 0.469459 0.447739
32 5 0.459996 0.428003 0.453912
33 5 0.504638 0.468153 0.407815
34 4 0.521066 0.480023 0.495707
35 5 0.5378 0.523329 0.490866
36 5 0.498165 0.477346 0.536295
37 3 0.564973 0.439409 0.494794
38 4 0.604868 0.447937 0.538613
39 5 0.583159 0.45639 0.57907
40 5 0.630734 0.409384 0.543418
41 4 0.643075 0.496962 0.52442
42 5 0.659692 0.490042 0.481393
43 5 0.618341 0.53651 0.524546
1 6 0.945631 0.610971 0.426274
2 7 0.981726 0.612878 0.407929
3 4 0.00352141 0.558288 0.397644
4 5 0.968927 0.52695 0.398619
5 5 0.0229979 0.557199 0.355233
44 3 0.686803 0.500413 0.564808
45 4 0.728488 0.541105 0.551136
46 5 0.708804 0.581104 0.537283
47 5 0.755126 0.549938 0.588438
48 4 0.765547 0.518748 0.504252
49 5 0.776519 0.474432 0.51393
50 5 0.742137 0.51986 0.46388
51 3 0.814521 0.552607 0.498844
52 4 0.85954 0.524512 0.471313
53 5 0.84386 0.498238 0.436069
54 5 0.889612 0.555767 0.454102
55 4 0.890043 0.487229 0.513154
56 5 0.898222 0.512029 0.551822
57 5 0.862496 0.451263 0.524248
58 3 0.941022 0.467569 0.489313
59 4 0.967638 0.425568 0.522555
60 5 0.935889 0.394424 0.536775
ITEM: TIMESTEP
0
ITEM: NUMBER OF ATOMS
66
ITEM: BOX BOUNDS pp pp pp
-1.2000000000000000e+01 1.2000000000000000e+01
-1.2000000000000000e+01 1.2000000000000000e+01
-1.2000000000000000e+01 1.2000000000000000e+01
ITEM: ATOMS id type xs ys zs
6 4 0.046856 0.543314 0.441781
7 5 0.0791806 0.576928 0.442688
8 5 0.0262976 0.541087 0.483597
9 3 0.0733842 0.491154 0.428186
10 4 0.108347 0.465733 0.469953
11 5 0.0823503 0.441146 0.499851
12 5 0.137998 0.436323 0.449113
13 4 0.1433 0.507653 0.503068
14 5 0.166046 0.53479 0.472661
15 5 0.114926 0.534563 0.528524
16 3 0.1809 0.478699 0.539218
17 4 0.227016 0.512932 0.556004
18 5 0.213676 0.557311 0.561766
19 5 0.244011 0.497188 0.59654
20 4 0.273051 0.510025 0.512151
21 5 0.291014 0.466953 0.512875
22 5 0.254992 0.51785 0.469842
23 3 0.314647 0.550909 0.525414
64 5 0.0256364 0.48555 0.559174
65 7 0.0289066 0.40875 0.601002
66 6 0.059616 0.425538 0.621592
3 4 0.00352141 0.558288 0.397644
5 5 0.0229979 0.557199 0.355233
24 4 0.356582 0.556538 0.483118
25 5 0.337919 0.556565 0.440324
26 5 0.379723 0.596624 0.489166
27 4 0.398149 0.508495 0.487885
28 5 0.416992 0.509975 0.530537
29 5 0.375927 0.467803 0.48278
30 3 0.440218 0.513561 0.445879
31 4 0.480511 0.469459 0.447739
32 5 0.459996 0.428003 0.453912
33 5 0.504638 0.468153 0.407815
34 4 0.521066 0.480023 0.495707
35 5 0.5378 0.523329 0.490866
36 5 0.498165 0.477346 0.536295
37 3 0.564973 0.439409 0.494794
38 4 0.604868 0.447937 0.538613
39 5 0.583159 0.45639 0.57907
40 5 0.630734 0.409384 0.543418
41 4 0.643075 0.496962 0.52442
42 5 0.659692 0.490042 0.481393
43 5 0.618341 0.53651 0.524546
61 5 0.998721 0.403773 0.495316
62 4 0.997677 0.450834 0.573131
63 5 0.966504 0.468791 0.602742
1 6 0.945631 0.610971 0.426274
2 7 0.981726 0.612878 0.407929
4 5 0.968927 0.52695 0.398619
44 3 0.686803 0.500413 0.564808
45 4 0.728488 0.541105 0.551136
46 5 0.708804 0.581104 0.537283
47 5 0.755126 0.549938 0.588438
48 4 0.765547 0.518748 0.504252
49 5 0.776519 0.474432 0.51393
50 5 0.742137 0.51986 0.46388
51 3 0.814521 0.552607 0.498844
52 4 0.85954 0.524512 0.471313
53 5 0.84386 0.498238 0.436069
54 5 0.889612 0.555767 0.454102
55 4 0.890043 0.487229 0.513154
56 5 0.898222 0.512029 0.551822
57 5 0.862496 0.451263 0.524248
58 3 0.941022 0.467569 0.489313
59 4 0.967638 0.425568 0.522555
60 5 0.935889 0.394424 0.536775
ITEM: TIMESTEP
1000
ITEM: NUMBER OF ATOMS
66
ITEM: BOX BOUNDS pp pp pp
-1.2000000000000000e+01 1.2000000000000000e+01
-1.2000000000000000e+01 1.2000000000000000e+01
-1.2000000000000000e+01 1.2000000000000000e+01
ITEM: ATOMS id type xs ys zs
6 4 0.136535 0.565612 0.185663
7 5 0.14158 0.535089 0.149945
8 5 0.176618 0.589648 0.191902
9 3 0.126872 0.544236 0.239542
10 4 0.174424 0.545417 0.276597
11 5 0.177827 0.501133 0.290677
12 5 0.215162 0.555826 0.256655
13 4 0.164031 0.58316 0.328116
14 5 0.134565 0.61778 0.31701
15 5 0.143063 0.555287 0.359472
16 3 0.217454 0.602133 0.351792
17 4 0.259165 0.563657 0.368646
18 5 0.260507 0.526313 0.340891
19 5 0.301539 0.582842 0.368427
20 4 0.241189 0.546079 0.426077
21 5 0.227538 0.583873 0.449235
22 5 0.204956 0.516906 0.422275
23 3 0.288814 0.517987 0.446901
64 5 0.00829026 0.39533 0.739933
65 7 0.0101136 0.310872 0.73198
66 6 0.0468547 0.303266 0.7545
3 4 0.0932526 0.612114 0.172759
5 5 0.0909636 0.615722 0.126093
24 4 0.326098 0.553456 0.476374
25 5 0.363474 0.562438 0.449801
26 5 0.305337 0.593134 0.489795
27 4 0.342596 0.521681 0.528639
28 5 0.309503 0.530156 0.560188
29 5 0.342948 0.475707 0.519843
30 3 0.395584 0.538706 0.552703
31 4 0.442378 0.513701 0.522117
32 5 0.427678 0.47576 0.499374
33 5 0.453195 0.545211 0.489746
34 4 0.494175 0.499077 0.554406
35 5 0.511461 0.536121 0.577234
36 5 0.485199 0.466298 0.586437
37 3 0.53368 0.479596 0.512841
38 4 0.580482 0.449682 0.530401
39 5 0.568384 0.416809 0.561269
40 5 0.598439 0.428973 0.492383
41 4 0.625359 0.487321 0.556738
42 5 0.639696 0.516509 0.523171
43 5 0.60395 0.512148 0.589809
61 5 0.923547 0.382033 0.678597
62 4 0.980414 0.362073 0.749663
63 5 0.972838 0.358627 0.797054
1 6 0.101025 0.692847 0.165592
2 7 0.114538 0.664206 0.189908
4 5 0.0514306 0.598106 0.187918
44 3 0.67175 0.455189 0.577715
45 4 0.716163 0.491146 0.597951
46 5 0.73881 0.512472 0.563248
47 5 0.698487 0.523456 0.626524
48 4 0.758519 0.45546 0.629822
49 5 0.738726 0.419835 0.652939
50 5 0.785627 0.438672 0.596047