ITEM: TIMESTEP
0
ITEM: NUMBER OF ATOMS
2
ITEM: BOX BOUNDS pp pp pp
-1.1680863670718374e+01 5.9916228713137322e+01
-1.2058841260604733e+01 1.2058841260604733e+01
-1.2058841260604733e+01 1.2058841260604733e+01
ITEM: ATOMS id type xs ys zs
3216 6 0.378814 0.271728 0.863979
3151 6 0.614397 0.419609 0.183315
