LAMMPS data file via write_data, version 3 Nov 2022, timestep = 3000000

1118 atoms
2 atom types

-30 30 xlo xhi
-30 30 ylo yhi
-0.5 0.5 zlo zhi

Masses

1 1
2 1

Pair Coeffs # lj/cut

1 1 1
2 0.5 3

Atoms # atomic

438 2 -29.324364890028136 -26.807500479657524 0 1 1 0
592 1 -22.041600431946538 -28.575481013043063 0 -1 1 0
1019 1 -23.579687668579247 -28.729948422763165 0 1 0 0
1093 1 -19.74340426973451 -29.498108133290312 0 -1 0 0
237 1 -18.910450675178463 -28.92861946784586 0 1 0 0
862 1 -17.50874452605606 29.836639000987923 0 0 1 0
366 1 -17.126555576081245 -29.113840954104163 0 -1 0 0
545 1 -16.121911362759086 -28.695564276521747 0 0 1 0
1036 1 -16.42406165676364 29.901572118978812 0 0 0 0
397 1 -14.821365979536015 -29.41461004756375 0 0 0 0
16 1 -13.715724300396708 -28.964565253934886 0 0 0 0
555 2 -9.890097153264842 -28.731824529059434 0 1 0 0
835 1 -5.571979158318373 -29.476256271578023 0 -2 1 0
865 1 -2.857676772267438 27.54815795837879 0 1 -1 0
60 1 2.195597455086257 29.837450999069198 0 0 -1 0
3 1 3.0088668828188236 -28.84821053455404 0 0 -1 0
814 1 10.051899148608731 -29.383437903154103 0 1 1 0
480 1 10.570103583562355 -27.966204469157933 0 -1 1 0
442 1 12.859941032903766 -29.024137680807012 0 0 1 0
413 1 14.329617265044275 -28.83898256823018 0 0 1 0
596 1 20.46934319080845 -27.82260683496501 0 0 0 0
153 1 23.580311359988457 -29.680721852040225 0 0 0 0
465 2 25.891503742291395 -29.389162681012635 0 0 1 0
492 2 -25.34584871183832 -28.358702360839054 0 1 1 0
854 1 -24.518194048411925 28.65358463290467 0 0 -1 0
447 1 -20.950458335998167 -28.565456038613323 0 1 1 0
383 1 -19.498296576041003 -27.725573781270118 0 1 1 0
530 1 -13.737379876387122 -27.838540231792138 0 1 1 0
871 1 -12.710834843410712 -27.56961914480542 0 0 0 0
507 1 -11.98963296062124 -28.772763617451226 0 0 0 0
927 1 -4.723739479287983 -27.14392370890578 0 0 0 0
578 2 1.3107815167714165 -27.454351176666474 0 0 0 0
42 1 2.9931427703907447 -26.766195406533562 0 -2 -1 0
254 1 3.6121226526641523 -27.937394635680995 0 0 0 0
647 2 5.668690322463643 -28.70680876669744 0 0 0 0
796 1 7.3317142507210065 -27.935516526865236 0 0 0 0
1092 1 12.442472530168562 -27.944154715485002 0 -1 1 0
1007 1 14.399668217929207 -27.527139660271178 0 -1 1 0
603 2 18.480890789623555 -27.632445426617195 0 0 0 0
751 2 22.31073743657375 -28.063580246532148 0 0 1 0
151 1 24.170629814464053 -27.718689509531995 0 0 -1 0
806 1 29.470118624653733 -29.106597346254215 0 0 1 0
678 1 -27.5558267595554 -27.307618958629728 0 1 1 0
658 1 -25.79037905008305 -26.475784923019365 0 1 1 0
216 1 -24.493058874830176 -25.464182564008865 0 0 -1 0
112 1 -20.527687976949423 -26.936535800040204 0 1 0 0
590 1 -21.061092942884642 -25.60701745632645 0 -1 1 0
618 2 -17.79536158536125 -25.767884722206944 0 0 0 0
110 1 -16.68608427690521 -27.573148665889153 0 -1 1 0
357 1 -14.77646820270229 -28.013145687844478 0 0 0 0
857 1 -13.500932753153279 -26.689964067872737 0 0 1 0
44 1 -11.886979478738134 -26.268895311983574 0 0 -1 0
358 1 -11.47410811533189 -27.405903934810436 0 0 1 0
915 1 -8.150011383318006 -27.062879482871107 0 1 0 0
536 1 -7.006680327825621 -26.44090460867427 0 -1 1 0
765 1 -7.0883561389376935 -27.58648954444622 0 0 1 0
156 1 -6.2155708073749345 -25.416289515045506 0 0 0 0
1044 1 -3.779369659966909 -26.491014024810646 0 0 1 0
1047 1 -5.074416206046467 -25.751144455959924 0 0 1 0
649 2 -2.4019383233051075 -25.297999547256467 0 0 1 0
727 1 -0.1597792843188356 -26.203457398078413 0 0 1 0
476 1 4.548609387406985 -27.38699776732648 0 0 -2 0
607 1 5.639028129081538 -26.54854091772494 0 1 1 0
1099 1 7.634826600419817 -25.77885504818276 0 0 0 0
228 1 9.669646781685378 -27.252116850029964 0 -1 1 0
268 1 8.204032479268088 -27.382189134764634 0 -1 -1 0
345 1 10.804614983247433 -26.717087741735003 0 0 1 0
911 1 13.218269361603072 -26.976814534216516 0 0 0 0
987 1 12.111954777145494 -26.94971850145857 0 -1 1 0
88 1 16.15322190990185 -27.410953584129853 0 0 0 0
1023 1 23.987030060556705 -26.410686364212093 0 0 1 0
159 1 25.280674917720027 -25.857061474566407 0 1 1 0
706 1 28.007895406025288 -26.40397999831525 0 -1 0 0
893 1 -28.048338165062987 -23.881343667138744 0 1 1 0
714 1 29.70994616813306 -24.899990194778745 0 -1 0 0
758 1 -29.120665038037373 -24.31416625845698 0 2 0 0
851 1 -26.75999082921802 -23.974528344080454 0 1 0 0
53 1 -27.687735111416284 -25.436693447473676 0 0 0 0
906 1 -21.67545485508293 -24.693306668156367 0 2 1 0
235 1 -17.559014983975874 -23.560546963592465 0 0 1 0
934 1 -15.379817503827137 -26.072199824033394 0 0 0 0
1090 1 -14.137436122472124 -25.86781553926922 0 -1 1 0
226 1 -8.533582947749673 -25.778294897921267 0 -1 1 0
487 1 -7.404728970995861 -24.227477263416304 0 -1 0 0
363 1 -5.254339052697099 -24.39270736212302 0 1 1 0
361 1 -3.388105877506382 -23.554652669603904 0 0 0 0
275 1 0.821876934181179 -25.26822940612954 0 -1 -1 0
626 1 2.066800337978828 -25.656831504845435 0 0 1 0
426 1 2.275174136828976 -24.614708334359545 0 -1 1 0
374 2 4.434681537183312 -24.292299789029364 0 0 0 0
1054 1 11.206794623432147 -24.46729152869384 0 0 0 0
597 2 13.92495193287015 -25.334492132540987 0 0 1 0
201 1 15.536748766058668 -25.83175824656891 0 0 1 0
1009 1 17.0547911001868 -26.255490812775715 0 -1 1 0
513 2 19.68633302265948 -24.991817865207185 0 0 0 0
396 1 21.561301385330516 -24.906942135974678 0 0 -1 0
772 1 21.516197047734185 -23.777899336553542 0 0 -1 0
795 1 23.442731241851234 -24.23498429601536 0 0 0 0
923 1 24.65747698432918 -23.892927305905648 0 0 0 0
1095 1 28.580802665217217 -25.062210454902758 0 -1 1 0
947 1 29.05009730833273 -26.000343438993667 0 -1 1 0
173 1 -29.247468123859232 -23.07240801743193 0 0 0 0
565 1 29.83417952044368 -23.80007110389561 0 -1 1 0
448 1 -19.581222714599967 -24.428297807539984 0 0 0 0
207 1 -20.965143546348752 -22.68605326898646 0 0 0 0
30 1 -20.63006350689007 -23.704896716085575 0 0 1 0
798 1 -18.87782357540112 -23.38430977169902 0 0 1 0
651 2 -15.275355046085613 -22.38492141092743 0 0 1 0
873 1 -12.510265394213086 -25.54424114997985 0 1 0 0
407 2 -9.724481200684485 -24.251696996712415 0 0 1 0
680 1 -4.599628946575247 -23.514975694824688 0 1 -1 0
419 1 -1.5127614260652686 -23.498748132284092 0 0 0 0
157 1 -0.516954766185502 -24.388448518941843 0 -1 0 0
306 1 0.8913331381470827 -23.13336511926488 0 0 0 0
382 1 6.229882003273368 -23.70477579758256 0 1 0 0
55 1 8.861815909213707 -24.375653953305726 0 1 -1 0
485 1 10.130879671859411 -23.77907103138828 0 0 0 0
1074 1 11.107979193659046 -23.454237889771147 0 0 1 0
424 1 13.72048248464645 -23.412672516278924 0 0 1 0
763 1 15.0511112463213 -23.5837190028557 0 0 0 0
1096 1 18.945049211440267 -22.582147780531596 0 -1 2 0
1080 1 20.286111139776683 -21.906929316406334 0 1 1 0
598 2 23.427768848998014 -22.352929300337053 0 -1 0 0
185 1 25.302401594324014 -24.76048026803226 0 -1 0 0
1109 1 26.96519282371742 -23.71497223891081 0 0 2 0
949 1 28.636376886411533 -23.988174078776268 0 0 1 0
1104 1 -29.38620108886011 -22.0364251384342 0 1 0 0
186 1 -27.30666858964304 -21.943881743347006 0 -2 0 0
998 1 -24.6717388624794 -23.225289153511827 0 1 1 0
1042 1 -26.105926361221993 -21.115599055816382 0 0 1 0
314 1 -23.034543580542632 -22.92432450897206 0 0 0 0
489 1 -22.042150687104993 -22.817745741897916 0 0 0 0
144 1 -19.777598227835146 -22.788528474318706 0 2 0 0
37 1 -19.20034591103892 -21.84499362365646 0 1 1 0
307 1 -12.816796909085134 -23.96660226616702 0 0 0 0
703 1 -13.731036705264641 -21.470305780886115 0 2 0 0
972 1 -12.958079235481625 -22.817375078298724 0 0 1 0
10 1 -10.46800142303089 -22.668315639276738 0 0 0 0
573 2 -6.124559415274661 -22.434752954291113 0 0 0 0
2 1 -4.161052019316316 -22.059982224108243 0 0 0 0
529 1 1.7171036006568334 -22.00836012537066 0 1 0 0
189 1 2.607318720325405 -23.66413402656914 0 -1 0 0
917 1 5.202162987532376 -22.54229355133308 0 0 0 0
355 1 6.009464913597921 -21.2161841872544 0 1 0 0
161 1 7.071691212465851 -22.550803895951166 0 -1 0 0
479 1 7.284128602450648 -21.31845271968509 0 1 0 0
570 1 7.416582828739335 -23.503283963691796 0 0 1 0
517 2 9.075000975198993 -22.430987792867125 0 -1 -1 0
140 1 12.233643348108977 -21.943233488805046 0 0 0 0
850 1 13.592506193567013 -22.146613388512232 0 0 1 0
197 1 16.07063435166939 -23.414414154606355 0 0 -1 0
347 1 16.179507499874337 -21.968781703272427 0 -1 1 0
1112 1 21.962939438782676 -21.05230317816134 0 1 0 0
375 2 26.3604679149768 -21.74603146057479 0 0 0 0
773 1 29.875762309822356 -20.130283852998488 0 -1 1 0
842 1 -29.627143411362233 -21.064336350391752 0 0 0 0
817 1 -24.71297612002193 -20.407887925906582 0 1 1 0
412 1 -21.639075831566807 -19.419106578244318 0 0 0 0
1072 1 -23.156201867521656 -21.53327176210767 0 1 1 0
83 1 -21.581234760396562 -21.602429688776784 0 1 -1 0
1052 1 -21.291868440435636 -20.561299181182765 0 1 1 0
99 1 -20.146884643790536 -20.759321458273963 0 0 0 0
486 1 -20.321782636496454 -21.772713610482256 0 -1 0 0
546 1 -19.148991249902938 -20.794908754680392 0 0 0 0
622 2 -17.416016369534088 -20.983809852245216 0 1 1 0
131 1 -15.752646271934333 -20.03699422429441 0 0 0 0
981 1 -14.34118214475388 -20.534338548212958 0 0 2 0
511 1 -13.36890027518131 -20.00079610409511 0 -1 0 0
831 1 -10.62106097626134 -21.175289173584385 0 1 0 0
880 1 -10.763444391813273 -18.938875234579648 0 0 0 0
642 1 -9.565429667229905 -21.55084758030251 0 1 0 0
1037 1 -8.997245563223736 -20.206617163196942 0 0 1 0
521 1 -5.043287552931146 -21.170348179560786 0 0 0 0
464 2 -0.5446844545257459 -22.17423185296652 0 0 0 0
433 2 4.178669216267466 -21.19572834563548 0 0 0 0
670 2 10.154258594760009 -19.824650081947244 0 0 1 0
913 1 13.142813839442415 -19.425215296602136 0 0 -1 0
212 1 16.522563411868692 -20.7291702290548 0 0 -1 0
304 1 17.57312275402499 -21.664949275233646 0 0 0 0
1077 1 20.99959183451444 -20.4375015632558 0 0 0 0
128 1 23.905816439357128 -18.660717881002686 0 0 0 0
938 1 25.03301862616496 -20.62352100064107 0 -1 1 0
1078 1 -28.450604020350116 -18.56036950476462 0 1 1 0
936 1 -29.44832564361337 -18.866128193748366 0 0 1 0
78 1 -26.213558798536642 -19.966600850710215 0 1 -1 0
270 1 -27.31221610016157 -18.018114589257035 0 0 -1 0
39 1 -24.573774866307424 -19.20395164690218 0 1 0 0
548 1 -22.844646036451884 -19.433378671398096 0 0 2 0
276 1 -21.485055588998783 -18.188927484215796 0 0 0 0
291 1 -19.743615243788653 -19.781422932046077 0 2 0 0
431 1 -18.788672371529223 -19.55199572200051 0 0 1 0
845 1 -14.854990945540276 -19.591880601028503 0 0 1 0
841 1 -14.014035775721766 -18.858772679814987 0 -1 1 0
387 1 -11.351581217767963 -20.298344206582396 0 1 2 0
952 1 -9.725710438933177 -19.1670038410943 0 0 1 0
97 1 -8.646061638571375 -18.48666107416302 0 0 -1 0
903 1 -7.690065863466575 -20.442550411482348 0 -1 2 0
115 1 -7.562295692391233 -17.77596974797382 0 2 0 0
149 1 -6.451885854041324 -19.406423017354502 0 0 0 0
971 1 -5.430034281524556 -19.07609384067321 0 0 1 0
538 1 -3.097350542808298 -19.065482440656957 0 -1 0 0
612 1 -3.9185249704577947 -18.39007405913811 0 1 0 0
1035 1 -2.8251325968259864 -18.05148782868907 0 -2 1 0
811 1 4.398052019055728 -18.99373305734295 0 -1 1 0
73 1 7.398572495310236 -20.012197929877924 0 1 -1 0
552 2 14.741086331597492 -20.473946213485455 0 0 0 0
1056 1 15.082553975569137 -18.434529893389833 0 0 1 0
395 1 18.996411754816894 -20.01396097286747 0 -1 0 0
1043 1 17.48865873901245 -19.15177976646353 0 -1 2 0
969 1 22.00932278459999 -19.98671040512177 0 0 1 0
466 2 25.8297755758329 -19.159653530974104 0 0 0 0
526 1 29.024244025678165 -19.333705672931234 0 -1 1 0
446 1 -25.44390865348607 -18.648330649407225 0 1 -1 0
744 1 -23.123145603589958 -17.124605844051565 0 0 0 0
844 1 -20.554003884909662 -18.9132051335769 0 0 0 0
985 1 -22.064105169583375 -17.11664500000273 0 -1 0 0
804 1 -20.562791747148434 -16.688368528401135 0 1 0 0
293 1 -17.192119149563425 -18.06834880552459 0 1 0 0
245 1 -11.838485658709537 -18.036578293563093 0 0 0 0
1020 1 -9.506290875780016 -17.807515452319944 0 0 1 0
322 1 -8.61953961439826 -17.334002878765574 0 1 1 0
141 1 -7.393806170807128 -16.521471377620326 0 0 0 0
136 1 -6.21470350410481 -18.01814168545569 0 0 0 0
504 1 -5.23187402468065 -17.42671506258628 0 0 -1 0
5 1 -4.309435570642157 -16.576104203490097 0 0 1 0
925 1 -3.3749768307335355 -17.068145057067877 0 0 0 0
220 1 6.495904292728143 -17.247816403634936 0 0 0 0
889 1 5.949763230199879 -19.699069838192457 0 1 1 0
674 2 10.918086052755797 -17.140779481275626 0 1 0 0
872 1 12.405391414386806 -18.432566354564802 0 1 1 0
1018 1 13.60434520940345 -17.529115466327983 0 0 -1 0
621 2 20.21859384868696 -18.850282027431483 0 -1 0 0
417 1 22.882852022476833 -17.755105402549546 0 0 1 0
822 1 23.183198226527647 -16.74957013728014 0 0 1 0
349 1 25.046899816673555 -17.19132634096019 0 0 1 0
766 1 26.221108400705116 -17.15000518965068 0 0 0 0
572 2 -27.85554889664401 -15.334444470027698 0 1 0 0
432 1 -21.064715853039267 -14.907301024066113 0 0 1 0
286 1 -21.689528570739796 -15.781331533710643 0 1 -1 0
569 2 -15.137019140301375 -16.866901429209015 0 0 0 0
869 1 -10.477295381033972 -17.723118728708165 0 1 0 0
589 1 -9.767936312977682 -16.608412998965356 0 0 0 0
1094 1 -6.033244212874354 -16.493902127952698 0 0 1 0
94 1 -5.326649469761941 -15.743594606497378 0 -1 0 0
522 1 -6.272463795820196 -15.418044722689386 0 1 0 0
512 2 -0.7413253781517132 -17.400934895325715 0 0 0 0
1065 1 1.2777488273889068 -15.93237557873642 0 0 2 0
760 1 2.0648347895387986 -16.971947618244467 0 0 1 0
668 2 4.098801449661958 -15.633273280522712 0 0 1 0
318 1 6.369943920044849 -15.901101347661859 0 0 1 0
491 2 8.122037908534905 -15.664256856041522 0 0 0 0
838 1 12.755092984484131 -14.96257660213854 0 -1 0 0
371 2 17.327807668248933 -16.5748961509467 0 0 0 0
302 1 19.475162059797423 -15.191051984774342 0 -1 -1 0
540 1 27.065543718165586 -15.245589352839843 0 -1 1 0
640 1 29.512375892403508 -17.761071149575642 0 0 0 0
323 1 -24.539195701241887 -15.787681851311374 0 -1 0 0
160 1 -25.07107863640934 -12.916475062026835 0 0 0 0
719 1 -23.46342629748843 -14.317170471566016 0 0 2 0
95 1 -23.114660068265618 -15.995920732128104 0 1 0 0
367 1 -18.00478003390425 -15.57816360468676 0 1 -1 0
676 2 -16.597894830050457 -14.494123899642164 0 1 0 0
233 1 -14.29297369320111 -14.919143065734831 0 0 -2 0
482 1 -13.459379582065996 -16.18393922871894 0 0 1 0
691 1 -10.78728328125427 -14.124882149678715 0 0 1 0
434 2 -8.039562946299652 -14.769421344363417 0 0 0 0
884 1 -4.280102543675657 -14.601029109214155 0 -1 0 0
628 1 2.2339517864669753 -13.226009207398363 0 0 1 0
784 1 13.782478714132134 -14.79243445763331 0 1 0 0
948 1 14.629412312942408 -15.843203072189528 0 0 0 0
599 2 21.162471727468095 -16.336994358732404 0 -1 0 0
775 2 24.36939672607964 -15.483572190020002 0 0 0 0
876 1 26.205156287851814 -14.216582708175233 0 0 0 0
467 2 29.443270349157242 -14.818978330264448 0 -1 0 0
57 1 -24.632943712584275 -13.940417985395463 0 1 0 0
648 2 -22.680704417398868 -12.664030632321406 0 0 1 0
7 1 -19.305092126697552 -14.408759968032829 0 1 0 0
234 1 -16.871591306527314 -12.511638342257081 0 1 0 0
685 1 -13.940767731677251 -13.742004767316574 0 -1 1 0
928 1 -13.07886200240644 -14.851474279141005 0 0 1 0
644 1 -12.387352666923782 -13.868628911505416 0 -1 0 0
933 1 -5.783183231911433 -14.046627981750415 0 0 1 0
1021 1 -4.91238784289505 -12.883456635606265 0 -1 1 0
661 1 -3.8067320256686896 -12.917529689410465 0 -2 0 0
54 1 -2.6913610612171013 -12.55591192665635 0 1 0 0
725 2 -0.008693014733657528 -13.705534512576167 0 0 0 0
1062 1 4.722138903621514 -13.195128165451807 0 -1 1 0
588 1 9.888957179271772 -13.959894733146774 0 -1 1 0
583 1 16.168540085428646 -13.800043038337522 0 1 0 0
404 1 16.580811316097787 -14.833413836662809 0 -2 1 0
645 1 17.19938559657449 -13.407316882545786 0 -2 0 0
942 1 18.205021354584193 -13.697591897698445 0 0 0 0
810 1 25.011688594952584 -12.880108360967922 0 -2 0 0
610 1 26.654453661572408 -12.9917128446693 0 -2 1 0
72 1 27.244981930894024 -11.603736656433158 0 -1 -1 0
263 1 -28.231926698587475 -12.432247670254219 0 0 0 0
108 1 -26.56826416775785 -12.452892909501278 0 -1 -1 0
380 1 -20.593414618784593 -11.298440125367057 0 1 0 0
576 2 -18.561314606641666 -12.901947905053653 0 1 0 0
279 1 -15.896122168512932 -12.924463934692396 0 0 0 0
284 1 -14.746645426979732 -13.11898406473047 0 1 1 0
665 1 -13.64458771537356 -12.731479622115497 0 -1 1 0
231 1 -10.749455327243117 -11.347988659907383 0 -1 0 0
460 2 -9.621250898127656 -12.712440358761516 0 1 0 0
1117 1 -5.807749448569036 -12.30003574812537 0 0 0 0
218 1 -7.711230685908824 -12.891788812468851 0 -1 0 0
531 1 -5.276319168065837 -10.467335571674973 0 1 1 0
11 1 -4.5516606262846535 -11.861684717557582 0 0 1 0
683 1 -2.835134926212042 -11.53994750287373 0 1 1 0
343 1 0.3580540166214797 -11.712779521057083 0 0 0 0
1114 1 4.341647824935511 -11.759526430433757 0 0 2 0
514 2 11.635554627550608 -12.242584294595897 0 0 0 0
882 1 16.441039435452385 -11.788838082163311 0 -1 1 0
1113 1 18.04811742017873 -12.11578494761861 0 0 1 0
89 1 19.52416860459213 -12.353350162291179 0 0 0 0
995 1 19.34757522338676 -14.02702129430251 0 0 0 0
820 2 21.17714215313592 -13.19883900601621 0 0 1 0
315 1 28.207242489526045 -12.310845371427712 0 0 -1 0
1069 1 -28.1414760621018 -11.124086312897397 0 0 1 0
1055 1 -28.86203750892353 -9.981322475210337 0 1 0 0
475 1 -25.99155757108611 -10.93333204668444 0 1 0 0
330 1 -23.242727475619596 -8.838694679526379 0 0 -1 0
930 1 -23.602342756855776 -10.036572977917734 0 0 0 0
390 1 -22.340783752891138 -10.780099644820341 0 2 0 0
656 1 -20.92252141291079 -10.197841111635512 0 0 0 0
384 1 -18.512154278668984 -10.459307023459944 0 1 1 0
242 1 -16.13065848603385 -11.711652199251606 0 -1 -1 0
416 1 -15.826044491645318 -10.649528634902813 0 0 -1 0
989 1 -14.463079790859279 -11.791568540501617 0 -1 1 0
577 2 -12.538188998587874 -11.139168911672408 0 1 1 0
1053 1 -10.876951888635999 -9.53054444912693 0 -1 0 0
494 2 -7.345860569098761 -10.254777579272394 0 1 0 0
427 1 -3.211049686685238 -10.31302881909462 0 -1 0 0
1015 1 -4.1434244975170476 -10.7572942465301 0 -1 0 0
205 1 -1.1235932332603757 -11.435281406044465 0 0 0 0
360 1 -0.285179669788522 -9.958961049461744 0 -1 0 0
1048 1 0.7439412482436126 -10.555746263780163 0 0 1 0
561 1 2.6011140196897595 -11.75833376840671 0 0 -2 0
777 2 2.6324053945597177 -9.568548561220913 0 0 1 0
698 2 6.288404878697094 -10.146506098753763 0 0 0 0
6 1 13.596443635414992 -10.711680060406458 0 -1 -1 0
27 1 14.206408983528261 -11.663711903448508 0 0 0 0
80 1 15.20974921017576 -12.039260659052765 0 -1 0 0
236 1 15.146567058544983 -10.79640947250156 0 0 0 0
181 1 17.28055821888133 -10.32512502116869 0 1 -1 0
281 1 24.22362576439865 -11.44166758901269 0 -1 -1 0
458 1 26.369701074339208 -10.969648944784007 0 0 0 0
896 1 25.789546280671715 -12.202503625676004 0 -1 0 0
1028 1 28.222912212005227 -10.946361005513127 0 0 0 0
800 1 29.150475101713745 -13.016818733356395 0 1 0 0
393 1 -29.189131629827312 -8.629185528381266 0 -1 0 0
983 1 -29.816143875474356 -10.445681541580923 0 0 1 0
993 1 -25.47043309178155 -9.529235360023664 0 0 -1 0
892 1 -22.167525447820868 -8.200652476019565 0 0 0 0
209 1 -19.52262960874462 -9.11618807317524 0 0 0 0
296 1 -17.2432553078294 -10.106405928633503 0 1 0 0
370 1 -17.213212660368544 -8.903350332819029 0 1 1 0
341 1 -16.220627426775188 -9.701918284796962 0 -1 -1 0
757 1 -14.759850480650384 -10.407505644250172 0 2 0 0
954 1 -13.534013594738179 -7.822937899380712 0 0 1 0
825 1 -11.95353094388824 -8.864210017495129 0 1 0 0
568 1 -10.354609490912205 -8.406807091811134 0 0 0 0
379 1 -9.261852469909057 -9.256057856404741 0 1 0 0
114 1 -8.802618865026902 -8.008954661312242 0 1 -1 0
807 1 -4.836903965287763 -9.482341163163891 0 -1 0 0
632 1 -4.692537334958644 -8.054803383048009 0 -1 -1 0
520 1 -2.3047887633412056 -9.727095367136918 0 1 0 0
1027 1 -1.999052333873762 -10.705679425651924 0 0 1 0
830 1 -1.827881770991071 -7.5006182870126725 0 0 1 0
266 1 -1.3022029204506818 -9.743989731124795 0 -1 0 0
973 1 0.6585514677267291 -9.377603691453178 0 1 1 0
704 1 9.328978800354227 -8.867795712234091 0 0 1 0
9 1 12.161395181283046 -9.176985126784345 0 -1 -1 0
1058 1 13.253450280767968 -9.364164726768035 0 -1 1 0
551 2 18.69823841205759 -9.141541999129991 0 -1 0 0
791 1 18.26510941341264 -11.006710686149217 0 -2 0 0
134 1 22.354986606866493 -8.758330493698535 0 0 -1 0
356 1 24.317515948138006 -10.440414781164895 0 1 0 0
516 2 27.440084591086755 -9.415957125443576 0 0 1 0
104 1 -28.651952139052764 -7.3078832415081125 0 1 -1 0
305 1 29.901218498116553 -7.022890607535332 0 -1 -1 0
210 1 -26.96617024677167 -8.782333647011002 0 1 0 0
288 1 -25.60385678334136 -7.4546707891135995 0 0 0 0
711 1 -22.494989123362863 -9.794993573318884 0 -1 0 0
964 1 -25.159428096083648 -8.482140385795526 0 1 0 0
643 1 -23.18392579014906 -7.381073320971343 0 1 -1 0
1045 1 -21.170304221062032 -8.112524015468205 0 1 1 0
29 1 -20.580846416078543 -9.053950429050943 0 1 0 0
244 1 -18.430993586356266 -8.32385318858149 0 1 -1 0
1059 1 -15.935208713547576 -8.589011133524982 0 1 1 0
143 1 -15.39056648544514 -7.6234649199838715 0 1 0 0
688 1 -11.332760463019012 -7.5643535953709975 0 -1 0 0
1091 1 -8.340026580625942 -6.886561642776113 0 0 0 0
653 1 -6.027531537684835 -8.175012178388311 0 1 0 0
49 1 -7.381321359032842 -7.948708055481538 0 0 0 0
709 1 -4.358398057217694 -6.934535470385385 0 1 0 0
34 1 -3.494749233441793 -9.27797617342581 0 0 -1 0
1041 1 -2.771068599027039 -6.987141848171138 0 1 0 0
392 1 -2.205445037546997 -8.698261123530823 0 0 1 0
931 1 2.862763312894794 -7.710542926853364 0 -1 0 0
663 1 4.808076735930001 -7.179455069601769 0 0 0 0
214 1 8.578649821715524 -9.711513099149217 0 0 1 0
77 1 9.815269830464953 -5.859357237009994 0 0 0 0
373 2 14.541218310550416 -7.387435028763041 0 0 0 0
24 1 19.34913087373199 -5.884575953893078 0 0 -1 0
788 1 20.472491758700027 -8.616553228133137 0 0 1 0
591 1 23.767571017128535 -8.647703022713662 0 0 -1 0
147 1 22.03792948419372 -6.849120811305824 0 -2 0 0
137 1 25.96138924411029 -8.30838766712395 0 0 0 0
329 1 28.74973907498063 -7.479095995316817 0 -1 -2 0
960 1 -29.042184403844807 -6.071642960624549 0 0 1 0
172 1 -27.653877805090946 -5.980216401485698 0 0 0 0
219 1 -27.272290663832564 -4.887015879977258 0 1 0 0
659 1 -26.291999475914263 -6.210560726310451 0 3 0 0
274 1 -22.415362970848523 -5.279149038244522 0 0 0 0
580 1 -21.471030747731913 -6.596407019359511 0 1 -1 0
888 1 -19.73432259848535 -7.851989615401482 0 1 0 0
974 1 -19.23009936792978 -6.933799843704759 0 1 1 0
750 2 -17.259587655600082 -6.663051779402593 0 1 0 0
988 1 -15.108412630119513 -6.569250331315516 0 0 1 0
586 1 -13.25571951855841 -6.370088062530686 0 0 -1 0
534 1 -12.377931001312879 -5.806544716073004 0 0 2 0
334 1 -10.170966024897428 -6.047814471635229 0 0 0 0
861 1 -9.696788578075557 -7.116074726574278 0 0 1 0
166 1 -7.029128874363216 -6.753410882079166 0 0 -1 0
832 1 -6.1366785586442125 -7.105229124970713 0 1 0 0
273 1 -5.752892262851782 -5.596399835389341 0 0 0 0
36 1 -3.450001795007759 -7.935462711715576 0 0 -1 0
864 1 -0.8483758247746177 -6.433373016573389 0 0 0 0
436 2 0.545235274954174 -7.608686558238898 0 -1 0 0
133 1 2.1522772068250786 -6.7900518437474195 0 0 0 0
188 1 3.7612003877135933 -6.647047462356953 0 0 1 0
468 2 6.7358826984282185 -6.573129659435026 0 0 0 0
785 1 8.757402044201978 -6.383531812233415 0 0 0 0
335 1 10.29829186429235 -4.719224019172221 0 0 -1 0
203 1 12.221673317794588 -6.860905250599586 0 0 -1 0
67 1 16.735162927943687 -8.25717606155154 0 0 0 0
496 1 20.529665686876786 -6.421899023961664 0 1 0 0
1116 1 22.747410064661736 -7.671003749653472 0 0 1 0
339 1 24.247091668571198 -7.371209947359686 0 -2 0 0
585 1 25.09200121426414 -5.942822339499173 0 -1 0 0
803 1 26.761835418014346 -7.517878692110175 0 0 0 0
978 1 27.80343391816456 -7.0392808410783365 0 0 1 0
444 1 29.11101327619055 -5.629973133325312 0 0 0 0
171 1 -29.744254909612458 -4.745763375253275 0 0 -1 0
634 1 -20.569731496839673 -7.121309650389069 0 1 0 0
154 1 -20.015776083149518 -5.8271958549092915 0 -1 -1 0
4 1 -21.344919780512203 -5.588449487708629 0 0 -1 0
943 1 -19.262967510762632 -4.717781790579151 0 1 0 0
802 1 -16.655493960128297 -4.748579966680963 0 1 2 0
391 1 -9.051403506196353 -6.014076496992705 0 0 0 0
731 1 -7.02396028918816 -5.194421511576246 0 1 1 0
321 1 -3.718805256227205 -5.480734721317917 0 -1 0 0
261 1 3.1925856041968848 -4.735119664638679 0 0 0 0
980 1 4.797390775513108 -5.644655838962569 0 0 -1 0
490 1 5.32275773576102 -4.066807912228797 0 0 0 0
679 1 6.292375119706968 -3.4300023421505847 0 0 0 0
615 1 9.12995404223474 -5.083208480197345 0 -1 1 0
899 1 11.423992893238875 -4.5633449848403815 0 -1 1 0
641 1 12.271070365254012 -5.7028689867773075 0 2 0 0
1105 1 17.92439725076926 -6.218088662484188 0 -1 0 0
602 2 17.85590604637039 -3.4080756979489624 0 0 0 0
98 1 20.437074460047796 -5.197599135292921 0 0 0 0
31 1 21.008047286473026 -3.848269407646899 0 0 -1 0
215 1 22.604386103217763 -5.705192475257397 0 0 -1 0
819 1 26.766359872372078 -5.352348837488552 0 0 1 0
452 1 25.738655400015634 -4.735863393138406 0 -1 0 0
631 1 27.826129529480788 -5.889677971236674 0 -1 0 0
146 1 29.602293672889548 -3.1184913457300563 0 0 0 0
508 1 28.664892555043465 -2.6963218009496104 0 -1 -1 0
883 1 -25.26003585107916 -5.720667864151525 0 1 0 0
118 1 -27.094078357198217 -2.3340401513318367 0 1 0 0
1016 1 -23.0375812207208 -4.183585873476012 0 -1 0 0
411 1 -22.027030380252864 -4.348136697635475 0 0 0 0
139 1 -23.09765499732416 -2.283913361437674 0 1 0 0
564 1 -18.583936420567788 -3.6040730945482062 0 1 1 0
248 1 -18.116443641781718 -4.70407072170266 0 1 0 0
303 1 -17.447859744890767 -3.4542784758128797 0 0 -1 0
556 2 -13.631882583551878 -4.010885514702321 0 1 0 0
849 1 -9.614956776349958 -4.991641866883252 0 0 0 0
269 1 -7.25312106517872 -2.446788025339816 0 0 0 0
106 1 -6.867243057015302 -3.6438414636395273 0 -1 0 0
637 2 -2.677854906578865 -3.211323403478013 0 1 0 0
695 2 0.28313749723843123 -3.034253358908789 0 0 1 0
402 1 4.234779210653464 -3.838340926227057 0 -1 0 0
837 1 2.1280922672991873 -4.111663966915864 0 0 0 0
630 1 4.967876818319916 -2.851050899489881 0 -2 0 0
224 1 6.972032704914146 -4.50937118785012 0 0 -1 0
801 1 7.7865210157163744 -4.948490480077447 0 0 0 0
558 1 8.044902120322766 -3.8532710940287873 0 -1 0 0
778 2 12.95412035946988 -3.653835392007924 0 0 1 0
898 1 14.687933012784555 -4.429519605350883 0 -1 -1 0
846 1 14.82352713863513 -2.6519420817820873 0 -1 1 0
500 1 15.889874382430031 -3.374006125150133 0 0 0 0
1102 1 21.101854379132284 -2.2779460298000167 0 0 1 0
605 1 24.061637173638086 -3.366892875170375 0 0 0 0
885 1 27.86197725873417 -3.4993802829224294 0 -1 0 0
975 1 -28.669029223680745 -3.210265470456627 0 1 -1 0
453 1 29.68426488369518 -1.9749585331115014 0 -1 0 0
342 1 -26.069793762470333 -0.38441133911275693 0 0 0 0
660 1 -24.524414851706684 -3.629891991867532 0 1 -1 0
720 1 -23.192513066119847 -0.48166330249596123 0 1 0 0
963 1 -18.996666093546416 -2.531553540812116 0 1 0 0
955 1 -15.91146928860426 -3.2582746664993594 0 0 1 0
81 1 -15.68753872631769 -2.1867366288630357 0 1 -1 0
1002 1 -14.699835691572545 -2.4943864449320934 0 1 -1 0
1004 1 -13.072271273407106 -2.2556317881588352 0 0 1 0
627 1 -11.125008781393253 -2.0215734715125175 0 -1 1 0
582 1 -10.608600040988694 -2.9899894917029726 0 1 0 0
824 1 -5.731752648139919 -2.7217625983296547 0 0 0 0
310 1 -2.332329401526953 -0.7678454772125305 0 1 -1 0
1061 1 3.0320888907664516 -3.248909634665539 0 0 0 0
43 1 5.949203436532686 -1.3647554174944572 0 -1 1 0
1057 1 7.110836356236093 -2.318813836840648 0 0 1 0
708 1 8.312747510531302 -2.0413472409153965 0 0 0 0
739 1 10.967886006831849 -2.5830246995759683 0 -1 1 0
1033 1 9.816960264141159 -3.165519395463954 0 -1 1 0
924 1 13.922221716559482 -1.6326791374483896 0 0 0 0
843 1 19.244143367274706 -0.5006613006730529 0 0 0 0
990 1 19.18372301089483 -1.9369432358066803 0 0 0 0
866 1 21.950568432338514 -3.4881081251472086 0 0 1 0
780 2 25.79566398674412 -2.5866408756904664 0 0 0 0
483 1 27.56994018243184 -2.202162755698609 0 0 1 0
687 1 28.610312622591227 -1.6085974430741088 0 -1 1 0
326 1 -28.923441090623797 -0.6637147649710169 0 1 0 0
122 1 -26.261007458469102 -1.6311136277774338 0 -1 0 0
1079 1 -22.92160083672393 0.5477375859593965 0 1 1 0
566 1 -21.11035665681774 -1.1452405303639392 0 -1 -1 0
117 1 -20.300521287524692 0.2437918712665478 0 -1 -1 0
689 1 -19.858964414023518 -1.6032506643264322 0 1 0 0
559 1 -17.815184708209156 -0.02769425990962727 0 0 -1 0
1085 1 -16.89728884462924 -2.216682215553422 0 1 0 0
204 1 -13.82068900173595 -0.8016853537004152 0 -1 -1 0
797 1 -15.109246426564221 0.0686108130686882 0 1 1 0
1008 1 -12.303973933103455 -1.224890352934842 0 -1 1 0
922 1 -11.539568495860916 -0.4750736155444637 0 -1 2 0
193 1 -10.304167444243108 0.8553428238564635 0 2 0 0
336 1 -8.703701588540891 -0.9413747987518686 0 1 0 0
608 1 -7.805045710520713 -0.3589117930528805 0 0 1 0
879 1 -6.81577998375178 -1.2420498859933038 0 0 0 0
553 2 -4.642132404491273 -1.3597978660870689 0 0 0 0
945 1 -1.3874300834564117 -1.798448503810807 0 0 0 0
992 1 -0.26109869894244464 -1.242718476413811 0 0 0 0
435 2 2.3319716937857313 -1.176145483561059 0 0 0 0
518 1 4.522441104195065 -0.14602436232870955 0 0 0 0
1075 1 9.75841335499636 -2.057040204358663 0 -1 0 0
550 2 12.391527396617214 -0.7075785862387729 0 -1 1 0
935 1 17.131902958759404 -1.5291660593229552 0 -1 1 0
401 1 22.61110356779669 -1.2284374883578746 0 0 0 0
1083 1 23.692394514859522 -1.4105452360043238 0 0 1 0
332 1 -29.80239878259556 0.14873179276039486 0 1 0 0
200 1 -25.224510324959738 0.523940282776002 0 1 0 0
470 1 -23.329265246285065 2.3011153366555606 0 0 0 0
1082 1 -21.630670788501764 1.0241752692545985 0 0 1 0
745 1 -20.010025099818698 1.2561288461380808 0 0 1 0
1097 1 -19.285462735433555 -0.12818131221444445 0 0 1 0
59 1 -18.13905189507955 1.204460543347935 0 1 -1 0
182 1 -16.256642766447925 -1.0234763399133813 0 0 0 0
503 1 -16.098360270534013 0.3889399126662587 0 0 0 0
187 1 -14.811176589459029 1.0621576536926167 0 0 -1 0
129 1 -12.372041874561543 1.6297188434180532 0 1 -1 0