ITEM: TIMESTEP
1000
ITEM: NUMBER OF ATOMS
1600
ITEM: BOX BOUNDS pp pp pp
-3.0000000000000000e+01 3.0000000000000000e+01
-3.0000000000000000e+01 3.0000000000000000e+01
-5.0000000000000000e-01 5.0000000000000000e-01
ITEM: ATOMS id type xs ys zs
429 1 0.025079 0.997787 0.5
1363 1 0.0441179 0.0112109 0.5
657 1 0.0706172 0.0199752 0.5
1556 2 0.115127 0.00492454 0.5
577 1 0.162652 0.0198003 0.5
635 1 0.196327 0.00390307 0.5
1332 1 0.212873 0.0140552 0.5
1245 1 0.215521 0.996272 0.5
1055 1 0.255918 0.0157545 0.5
987 1 0.288478 0.0139922 0.5
1488 1 0.260241 0.998538 0.5
449 1 0.308298 0.0106877 0.5
1106 1 0.400156 0.00506852 0.5
1506 2 0.464084 0.0133233 0.5
1449 1 0.494926 0.00846283 0.5
1325 1 0.530286 0.00726529 0.5
1494 1 0.513167 0.019316 0.5
1538 2 0.559903 1.00008 0.5
688 1 0.611534 0.024594 0.5
486 1 0.633028 0.00762362 0.5
266 1 0.695399 0.0394319 0.5
1018 1 0.699834 0.00904024 0.5
141 1 0.733404 0.00672749 0.5
694 1 0.750573 0.00874007 0.5
1383 1 0.771064 0.0107565 0.5
366 1 0.789366 0.00823912 0.5
248 1 0.809637 0.998903 0.5
399 1 0.847999 0.0165407 0.5
10 1 0.867544 0.00155228 0.5
593 1 0.899658 0.0174575 0.5
193 1 0.913122 0.00818383 0.5
692 1 0.924308 0.0248421 0.5
1043 1 0.967605 0.99612 0.5
757 1 0.955627 0.00985415 0.5
1598 2 0.995292 0.00975813 0.5
1222 1 0.0270061 0.0160915 0.5
796 1 0.0404925 0.0288167 0.5
1111 1 0.0600749 0.0395652 0.5
1563 2 0.0923748 0.0397544 0.5
558 1 0.121654 0.033231 0.5
923 1 0.205854 0.0309742 0.5
1323 1 0.236155 0.0239897 0.5
1116 1 0.210538 0.0482421 0.5
1394 1 0.232627 0.0393633 0.5
637 1 0.25484 0.0332902 0.5
128 1 0.276608 0.0277793 0.5
824 1 0.292359 0.033348 0.5
579 1 0.270433 0.0442743 0.5
678 1 0.306774 0.0446394 0.5
1076 1 0.359361 0.032912 0.5
459 1 0.375546 0.019773 0.5
119 1 0.386012 0.0316146 0.5
764 1 0.432413 0.0247467 0.5
1148 1 0.406253 0.0359095 0.5
1257 1 0.426879 0.0428532 0.5
1193 1 0.44565 0.0387909 0.5
57 1 0.474096 0.04245 0.5
801 1 0.54992 0.0524906 0.5
1258 1 0.573461 0.026277 0.5
1251 1 0.582646 0.0431855 0.5
1436 1 0.62146 0.0380092 0.5
1358 1 0.640405 0.0317199 0.5
107 1 0.655486 0.0649135 0.5
1408 1 0.715964 0.026722 0.5
1052 1 0.734979 0.0243695 0.5
108 1 0.752058 0.027109 0.5
789 1 0.76462 0.0439311 0.5
1435 1 0.778884 0.0283982 0.5
1438 1 0.819096 0.0145805 0.5
388 1 0.798992 0.0299193 0.5
690 1 0.842249 0.0404582 0.5
665 1 0.864464 0.0276725 0.5
827 1 0.873501 0.0497366 0.5
1178 1 0.903381 0.0353042 0.5
1123 1 0.941365 0.0301175 0.5
1175 1 0.922349 0.0559331 0.5
259 1 0.969356 0.0318222 0.5
580 1 0.0425333 0.0486327 0.5
551 1 0.0453446 0.0656419 0.5
23 1 0.06306 0.062924 0.5
597 1 0.121981 0.0511409 0.5
432 1 0.101773 0.0683902 0.5
1493 1 0.139658 0.0576292 0.5
1475 1 0.149091 0.042991 0.5
115 1 0.166712 0.0379089 0.5
1161 1 0.232227 0.0589001 0.5
1051 1 0.252761 0.0503962 0.5
532 1 0.273573 0.0607417 0.5
276 1 0.310242 0.0650614 0.5
1250 1 0.291233 0.0537856 0.5
847 1 0.345472 0.0913942 0.5
84 1 0.373513 0.0437288 0.5
384 1 0.380579 0.0615106 0.5
16 1 0.415613 0.0571317 0.5
337 1 0.394211 0.0490285 0.5
616 1 0.425056 0.0813565 0.5
774 1 0.438986 0.060771 0.5
1310 1 0.496968 0.0274194 0.5
500 1 0.456553 0.0532974 0.5
795 1 0.482038 0.0671231 0.5
1105 1 0.593554 0.0597452 0.5
220 1 0.60196 0.0438103 0.5
553 1 0.635354 0.0492485 0.5
849 1 0.717226 0.0476001 0.5
1068 1 0.734139 0.0468849 0.5
1550 2 0.799712 0.0742333 0.5
521 1 0.824745 0.047925 0.5
1130 1 0.940996 0.0510448 0.5
845 1 0.95989 0.0482235 0.5
221 1 0.978323 0.0514051 0.5
1567 2 0.0126259 0.0493429 0.5
1425 1 0.0783429 0.0768041 0.5
40 1 0.0963024 0.087918 0.5
578 1 0.111828 0.0814569 0.5
46 1 0.138132 0.0769537 0.5
1465 1 0.144941 0.0939668 0.5
491 1 0.157229 0.0623661 0.5
1074 1 0.156824 0.0788447 0.5
496 1 0.174875 0.0543244 0.5
1441 1 0.22417 0.0765854 0.5
1010 1 0.237554 0.0874042 0.5
1215 1 0.251132 0.0686615 0.5
430 1 0.257869 0.10221 0.5
187 1 0.298119 0.0895792 0.5
343 1 0.275376 0.0802637 0.5
495 1 0.319126 0.0832545 0.5
300 1 0.363449 0.0848479 0.5
1525 2 0.395651 0.091622 0.5
1526 2 0.456141 0.0878659 0.5
436 1 0.503937 0.0529101 0.5
1327 1 0.487664 0.0845898 0.5
1001 1 0.504303 0.0763633 0.5
747 1 0.511035 0.0962792 0.5
197 1 0.523845 0.122351 0.5
1564 2 0.620354 0.0814054 0.5
1073 1 0.708383 0.110188 0.5
618 1 0.705787 0.0788546 0.5
409 1 0.766024 0.0809523 0.5
634 1 0.931783 0.0712274 0.5
733 1 0.958809 0.0890945 0.5
176 1 0.964061 0.071335 0.5
422 1 0.982476 0.0745857 0.5
1266 1 0.00496591 0.109814 0.5
1592 2 0.0381744 0.0948132 0.5
748 1 0.080485 0.0969432 0.5
1208 1 0.0667851 0.11067 0.5
126 1 0.0965569 0.109258 0.5
413 1 0.113858 0.100811 0.5
229 1 0.131323 0.104501 0.5
445 1 0.147453 0.114725 0.5
302 1 0.165236 0.113151 0.5
1562 2 0.194921 0.097075 0.5
372 1 0.238081 0.110629 0.5
641 1 0.270936 0.112545 0.5
356 1 0.314159 0.112711 0.5
497 1 0.367079 0.102622 0.5
902 1 0.364661 0.119505 0.5
272 1 0.381539 0.117 0.5
1204 1 0.396524 0.127146 0.5
36 1 0.542129 0.103167 0.5
1576 2 0.573322 0.116774 0.5
74 1 0.652146 0.120644 0.5
255 1 0.728924 0.103049 0.5
201 1 0.757601 0.104564 0.5
706 1 0.811856 0.120144 0.5
921 1 0.824867 0.0975465 0.5
610 1 0.835755 0.111703 0.5
342 1 0.869157 0.0911159 0.5
463 1 0.923702 0.0910374 0.5
1035 1 0.943527 0.100014 0.5
273 1 0.911595 0.112004 0.5
919 1 0.976631 0.0954596 0.5
888 1 0.950604 0.124243 0.5
230 1 0.997868 0.089341 0.5
181 1 0.987173 0.118413 0.5
116 1 0.999444 0.133986 0.5
866 1 0.0275774 0.130849 0.5
142 1 0.0447193 0.123668 0.5
516 1 0.0684184 0.130989 0.5
7 1 0.0830348 0.119079 0.5
1424 1 0.110866 0.119465 0.5
856 1 0.0954074 0.135053 0.5
489 1 0.116935 0.136701 0.5
1233 1 0.132426 0.148521 0.5
1400 1 0.129298 0.121671 0.5
1254 1 0.147607 0.133049 0.5
555 1 0.167931 0.134795 0.5
811 1 0.195234 0.137438 0.5
652 1 0.224415 0.128371 0.5
672 1 0.261603 0.128865 0.5
1029 1 0.281079 0.126873 0.5
174 1 0.358625 0.136924 0.5
954 1 0.377973 0.135171 0.5
620 1 0.402097 0.143612 0.5
412 1 0.421353 0.142445 0.5
770 1 0.418008 0.118265 0.5
8 1 0.437595 0.130903 0.5
1597 2 0.470976 0.13274 0.5
1225 1 0.503381 0.155093 0.5
319 1 0.488852 0.104799 0.5
237 1 0.541753 0.120322 0.5
1079 1 0.533631 0.163362 0.5
1186 1 0.627108 0.111317 0.5
995 1 0.630854 0.133159 0.5
1596 2 0.681009 0.137933 0.5
1030 1 0.789538 0.119032 0.5
251 1 0.832491 0.134882 0.5
1329 1 0.857955 0.128205 0.5
1414 1 0.835327 0.153193 0.5
1086 1 0.874217 0.122075 0.5
1146 1 0.86079 0.147045 0.5
1237 1 0.880151 0.146483 0.5
148 1 0.928162 0.120358 0.5
1486 1 0.961887 0.109056 0.5
1002 1 0.0134546 0.14872 0.5
965 1 0.005338 0.167373 0.5
768 1 0.0300425 0.15437 0.5
186 1 0.0273908 0.172301 0.5
443 1 0.0474861 0.142245 0.5
1509 2 0.0778654 0.16233 0.5
428 1 0.108918 0.153989 0.5
732 1 0.127715 0.166418 0.5
1195 1 0.162267 0.154566 0.5
1061 1 0.180214 0.151626 0.5
949 1 0.210224 0.145475 0.5
1121 1 0.224679 0.164216 0.5
214 1 0.272951 0.145205 0.5
1083 1 0.227761 0.146801 0.5
1372 1 0.286357 0.165652 0.5
1573 2 0.32997 0.153885 0.5
1226 1 0.376212 0.154028 0.5
1529 2 0.409829 0.173475 0.5
899 1 0.541946 0.141068 0.5
296 1 0.552517 0.159655 0.5
1588 2 0.604082 0.148319 0.5
398 1 0.63782 0.147922 0.5
943 1 0.654805 0.15451 0.5
1288 1 0.7447 0.155991 0.5
54 1 0.761206 0.166924 0.5
1558 2 0.803054 0.165269 0.5
393 1 0.814501 0.136708 0.5
663 1 0.849876 0.165403 0.5
1362 1 0.845366 0.181389 0.5
1026 1 0.869224 0.161866 0.5
1595 2 0.921303 0.148709 0.5
1566 2 0.971211 0.148408 0.5
177 1 0.0148882 0.182843 0.5
790 1 0.0470477 0.163797 0.5
437 1 0.125096 0.186325 0.5
1355 1 0.107005 0.191317 0.5
1593 2 0.15988 0.185067 0.5
777 1 0.209048 0.187972 0.5
100 1 0.203094 0.170744 0.5
1103 1 0.230751 0.205338 0.5
525 1 0.231753 0.181021 0.5
881 1 0.258654 0.154162 0.5
1206 1 0.247775 0.202485 0.5
1409 1 0.246416 0.172753 0.5
143 1 0.265604 0.174894 0.5
714 1 0.304585 0.175432 0.5
1315 1 0.303659 0.194168 0.5
451 1 0.357903 0.181813 0.5
1521 2 0.452484 0.171999 0.5
1050 1 0.517572 0.142781 0.5
1015 1 0.549894 0.177941 0.5
1391 1 0.578413 0.171745 0.5
253 1 0.64195 0.166735 0.5
41 1 0.654128 0.179407 0.5
262 1 0.719709 0.182371 0.5
857 1 0.750215 0.184997 0.5
503 1 0.767263 0.189846 0.5
1057 1 0.882064 0.178873 0.5
1411 1 0.900125 0.181743 0.5
49 1 0.898767 0.199878 0.5
203 1 0.947708 0.171753 0.5
1141 1 0.979574 0.188089 0.5
1487 1 0.989924 0.174403 0.5
738 1 0.0492808 0.202447 0.5
1097 1 0.0325183 0.191449 0.5
246 1 0.083639 0.195924 0.5
1100 1 0.0791961 0.214499 0.5
96 1 0.128867 0.205018 0.5
594 1 0.09795 0.208055 0.5
1469 1 0.178976 0.213876 0.5
648 1 0.190552 0.189565 0.5
917 1 0.263347 0.214376 0.5
121 1 0.268579 0.19392 0.5
1132 1 0.283309 0.182531 0.5
934 1 0.292592 0.210202 0.5
946 1 0.31401 0.233358 0.5
1431 1 0.325203 0.192804 0.5
560 1 0.329534 0.210231 0.5
162 1 0.338077 0.18184 0.5
172 1 0.349509 0.196819 0.5
798 1 0.37556 0.180153 0.5
132 1 0.37078 0.213715 0.5
684 1 0.368221 0.196193 0.5
99 1 0.412898 0.205214 0.5
465 1 0.442038 0.208607 0.5
137 1 0.429158 0.194898 0.5
1256 1 0.458549 0.211351 0.5
1271 1 0.546062 0.198287 0.5
1219 1 0.566534 0.200056 0.5
1533 2 0.617812 0.188357 0.5
1164 1 0.652456 0.200267 0.5
573 1 0.666691 0.190588 0.5
895 1 0.66939 0.208024 0.5
758 1 0.690261 0.199929 0.5
848 1 0.698994 0.181496 0.5
31 1 0.7389 0.199579 0.5
900 1 0.710091 0.198273 0.5
131 1 0.732716 0.21657 0.5
1297 1 0.755954 0.20166 0.5
213 1 0.758063 0.217028 0.5
784 1 0.772996 0.205743 0.5
1133 1 0.78539 0.192282 0.5
279 1 0.822906 0.204496 0.5
1304 1 0.825289 0.186543 0.5
941 1 0.841002 0.200505 0.5
743 1 0.828967 0.225874 0.5
915 1 0.845582 0.22325 0.5
386 1 0.874378 0.195942 0.5
1005 1 0.86234 0.179566 0.5
1262 1 0.873365 0.215059 0.5
196 1 0.891326 0.217296 0.5
1547 2 0.927874 0.203664 0.5
28 1 0.96157 0.191673 0.5
697 1 0.970146 0.226218 0.5
21 1 0.998161 0.192996 0.5
1120 1 0.04794 0.245443 0.5
631 1 0.0339662 0.219664 0.5
589 1 0.0531561 0.220995 0.5
130 1 0.0749199 0.234393 0.5
676 1 0.0963139 0.226182 0.5
854 1 0.114136 0.21202 0.5
1220 1 0.112285 0.233736 0.5
484 1 0.130597 0.22699 0.5
964 1 0.142606 0.240414 0.5
1241 1 0.148368 0.214519 0.5
1456 1 0.198144 0.206953 0.5
680 1 0.189709 0.23761 0.5
1143 1 0.202537 0.251831 0.5
563 1 0.262633 0.232646 0.5
1284 1 0.286607 0.228959 0.5
731 1 0.336323 0.22983 0.5
1377 1 0.357893 0.229091 0.5
673 1 0.385943 0.201979 0.5
267 1 0.387277 0.223342 0.5
1519 2 0.429336 0.234585 0.5
147 1 0.475686 0.221913 0.5
287 1 0.489746 0.20463 0.5
1017 1 0.493073 0.236386 0.5
311 1 0.542455 0.221841 0.5
1517 2 0.586421 0.219722 0.5
252 1 0.63399 0.224678 0.5
1038 1 0.653408 0.221576 0.5
365 1 0.664038 0.235546 0.5
600 1 0.684339 0.218861 0.5
756 1 0.693255 0.235485 0.5
215 1 0.702627 0.216471 0.5
280 1 0.716148 0.246983 0.5
861 1 0.713405 0.229094 0.5
1537 2 0.795488 0.226161 0.5
194 1 0.837941 0.243246 0.5
245 1 0.862354 0.229695 0.5
389 1 0.881943 0.230964 0.5
58 1 0.905628 0.226438 0.5
308 1 0.920119 0.236676 0.5
1437 1 0.957017 0.236002 0.5
650 1 0.970891 0.248058 0.5
1502 2 0.999201 0.227038 0.5
55 1 0.0226363 0.248579 0.5
1577 2 0.0426287 0.275608 0.5
1356 1 0.0878348 0.248504 0.5
602 1 0.105948 0.260083 0.5
1013 1 0.129506 0.252388 0.5
154 1 0.152248 0.257162 0.5
440 1 0.160519 0.231726 0.5
111 1 0.169701 0.248493 0.5
833 1 0.205673 0.228422 0.5
571 1 0.186711 0.264002 0.5
367 1 0.203546 0.273397 0.5
232 1 0.247126 0.248334 0.5
1584 2 0.324341 0.262796 0.5
66 1 0.347582 0.242458 0.5
321 1 0.374683 0.236923 0.5
903 1 0.396767 0.252578 0.5
325 1 0.466136 0.252844 0.5
728 1 0.532656 0.254262 0.5
510 1 0.546865 0.243162 0.5
123 1 0.563364 0.25071 0.5
740 1 0.605442 0.24138 0.5
5 1 0.624875 0.246756 0.5
60 1 0.642834 0.246125 0.5
285 1 0.665612 0.25678 0.5
1479 1 0.678401 0.245104 0.5
1293 1 0.681918 0.261017 0.5
173 1 0.699548 0.26769 0.5
1063 1 0.717561 0.266803 0.5
1518 2 0.752481 0.243081 0.5
330 1 0.778444 0.255524 0.5
1155 1 0.802485 0.261415 0.5
1500 1 0.822334 0.254335 0.5
153 1 0.868317 0.247979 0.5
1090 1 0.889024 0.26924 0.5
120 1 0.889296 0.248905 0.5
1553 2 0.935615 0.263582 0.5
958 1 0.112583 0.302759 0.5
927 1 0.124755 0.269916 0.5
1433 1 0.137634 0.288725 0.5
304 1 0.149125 0.275652 0.5
329 1 0.170279 0.271777 0.5
76 1 0.225234 0.248404 0.5
1185 1 0.190952 0.28687 0.5
953 1 0.217422 0.284487 0.5
531 1 0.268556 0.261336 0.5
1091 1 0.30908 0.292437 0.5
1348 1 0.357084 0.261175 0.5
951 1 0.371851 0.280497 0.5
310 1 0.378534 0.258157 0.5
1150 1 0.390604 0.27612 0.5
1328 1 0.409171 0.268042 0.5
1169 1 0.427409 0.28636 0.5
190 1 0.430177 0.268265 0.5
1066 1 0.458434 0.270922 0.5
1000 1 0.53573 0.273596 0.5
1289 1 0.53044 0.289242 0.5
223 1 0.55659 0.274476 0.5
893 1 0.575273 0.266074 0.5
327 1 0.585119 0.249766 0.5
326 1 0.595361 0.2698 0.5
1006 1 0.610021 0.279414 0.5
1301 1 0.613499 0.260976 0.5
1173 1 0.63373 0.27012 0.5
1316 1 0.649597 0.263337 0.5
1470 1 0.665298 0.276488 0.5
425 1 0.678558 0.287048 0.5
668 1 0.702598 0.286444 0.5
75 1 0.765406 0.274079 0.5
1037 1 0.782047 0.271231 0.5
649 1 0.815294 0.274321 0.5
161 1 0.836245 0.269642 0.5
504 1 0.854983 0.257039 0.5
1044 1 0.858157 0.281979 0.5
408 1 0.868903 0.267585 0.5
345 1 0.910259 0.277775 0.5
1300 1 0.0400279 0.308383 0.5
813 1 0.105934 0.284968 0.5
633 1 0.126232 0.312399 0.5
392 1 0.147052 0.310127 0.5
391 1 0.222825 0.303182 0.5
34 1 0.239267 0.29802 0.5
897 1 0.317646 0.327453 0.5
18 1 0.32792 0.312487 0.5
22 1 0.362206 0.315079 0.5
50 1 0.351764 0.280877 0.5
874 1 0.364687 0.296947 0.5
97 1 0.386206 0.296484 0.5
1142 1 0.405026 0.286613 0.5
986 1 0.4201 0.30416 0.5
1004 1 0.401456 0.305347 0.5
942 1 0.489471 0.299761 0.5
884 1 0.513697 0.289731 0.5
858 1 0.572237 0.283724 0.5
1439 1 0.555167 0.304807 0.5
1476 1 0.595375 0.292072 0.5
763 1 0.628532 0.29678 0.5
1314 1 0.618407 0.310782 0.5
679 1 0.646676 0.304994 0.5
501 1 0.648363 0.285625 0.5
166 1 0.667109 0.29939 0.5
1404 1 0.717254 0.317434 0.5
716 1 0.752197 0.29292 0.5
204 1 0.746429 0.273999 0.5
53 1 0.736734 0.306375 0.5
282 1 0.775281 0.290133 0.5
241 1 0.769253 0.307073 0.5
168 1 0.797343 0.280526 0.5
1340 1 0.793305 0.30492 0.5
1443 1 0.814167 0.2981 0.5
1407 1 0.827598 0.286472 0.5
534 1 0.844334 0.299354 0.5
707 1 0.8637 0.304908 0.5
868 1 0.878713 0.284509 0.5
469 1 0.888511 0.316468 0.5
1021 1 0.897021 0.296053 0.5
374 1 0.925184 0.289763 0.5
470 1 0.946069 0.305602 0.5
562 1 0.955302 0.288994 0.5
896 1 0.967501 0.273468 0.5
722 1 0.044207 0.32626 0.5
1234 1 0.0238213 0.316243 0.5
1009 1 0.0139884 0.351699 0.5
452 1 0.0601736 0.310842 0.5
1137 1 0.0913205 0.299743 0.5
725 1 0.0861219 0.320079 0.5
164 1 0.103642 0.316947 0.5
188 1 0.138903 0.325201 0.5
83 1 0.153872 0.344979 0.5
488 1 0.178886 0.303651 0.5
1243 1 0.205351 0.30575 0.5
1442 1 0.160414 0.320297 0.5
11 1 0.19206 0.317434 0.5
175 1 0.221063 0.324841 0.5
838 1 0.24165 0.316635 0.5
659 1 0.317845 0.347612 0.5
990 1 0.34453 0.321627 0.5
537 1 0.373421 0.325884 0.5
1357 1 0.383051 0.312549 0.5
960 1 0.399772 0.323331 0.5
1582 2 0.461901 0.299117 0.5
1065 1 0.526352 0.311677 0.5
699 1 0.512126 0.32766 0.5
905 1 0.572868 0.305196 0.5
1092 1 0.562236 0.326019 0.5
1126 1 0.577911 0.32064 0.5
1342 1 0.597058 0.310696 0.5
936 1 0.620837 0.330288 0.5
1489 1 0.604692 0.326203 0.5
853 1 0.63724 0.322382 0.5
910 1 0.658699 0.315749 0.5
416 1 0.67629 0.336012 0.5
289 1 0.682163 0.309869 0.5
826 1 0.712528 0.334209 0.5
709 1 0.752409 0.321837 0.5
1071 1 0.728964 0.330993 0.5
460 1 0.779277 0.322405 0.5
373 1 0.816551 0.32533 0.5
817 1 0.826756 0.310143 0.5
324 1 0.848635 0.317586 0.5
1268 1 0.872431 0.329162 0.5
617 1 0.896063 0.34211 0.5
1170 1 0.943527 0.338776 0.5
396 1 0.970078 0.295839 0.5
65 1 0.0428314 0.354079 0.5
1007 1 0.0776476 0.341597 0.5
456 1 0.0956833 0.338597 0.5
274 1 0.11556 0.339766 0.5
1194 1 0.139062 0.356499 0.5
865 1 0.172481 0.335864 0.5
461 1 0.221137 0.34568 0.5
1094 1 0.202536 0.33151 0.5
546 1 0.242051 0.347994 0.5
901 1 0.255455 0.360524 0.5
878 1 0.296542 0.353986 0.5
829 1 0.383448 0.34435 0.5
15 1 0.389551 0.361492 0.5
1275 1 0.404933 0.349036 0.5
1405 1 0.45591 0.342074 0.5
1524 2 0.485966 0.331846 0.5
505 1 0.528012 0.34246 0.5
1196 1 0.561091 0.346869 0.5
646 1 0.541521 0.324646 0.5
582 1 0.577588 0.339208 0.5
435 1 0.619844 0.353028 0.5
134 1 0.639051 0.351666 0.5
753 1 0.650861 0.335587 0.5
228 1 0.662753 0.350444 0.5
572 1 0.693943 0.335153 0.5
1286 1 0.723948 0.348669 0.5
502 1 0.740915 0.358308 0.5
1600 2 0.77623 0.355583 0.5
62 1 0.800234 0.336554 0.5
1542 2 0.84034 0.343691 0.5
1338 1 0.865603 0.361687 0.5
1336 1 0.908587 0.316946 0.5
656 1 0.917699 0.334424 0.5
1179 1 0.929092 0.350972 0.5
642 1 0.9621 0.328174 0.5
793 1 0.993951 0.359611 0.5
17 1 0.023412 0.370601 0.5
113 1 0.0694472 0.356647 0.5
664 1 0.0901175 0.3549 0.5
1480 1 0.0824137 0.372198 0.5
1075 1 0.108392 0.362687 0.5
1139 1 0.123098 0.372058 0.5
1599 2 0.192068 0.361554 0.5
1012 1 0.221324 0.374228 0.5
570 1 0.235351 0.364862 0.5
244 1 0.274376 0.362967 0.5
1156 1 0.318323 0.365336 0.5
1308 1 0.285502 0.378948 0.5
981 1 0.336673 0.355194 0.5
932 1 0.359976 0.34403 0.5
1450 1 0.355062 0.373456 0.5
972 1 0.455138 0.362382 0.5
1451 1 0.470119 0.371391 0.5
71 1 0.495623 0.365697 0.5
1571 2 0.589734 0.368352 0.5
127 1 0.632595 0.369674 0.5
101 1 0.655392 0.364753 0.5
1575 2 0.722715 0.380798 0.5
1152 1 0.809215 0.365846 0.5
1463 1 0.912393 0.360322 0.5
615 1 0.935275 0.370246 0.5
675 1 0.945713 0.385951 0.5
962 1 0.947867 0.355972 0.5
1160 1 0.96936 0.363891 0.5
78 1 0.992765 0.39582 0.5
797 1 0.0272072 0.391725 0.5
1581 2 0.053705 0.384071 0.5
322 1 0.101243 0.382083 0.5
974 1 0.114219 0.393136 0.5
1127 1 0.0988299 0.404108 0.5
184 1 0.165593 0.374818 0.5
846 1 0.146846 0.377233 0.5
88 1 0.133142 0.390924 0.5
568 1 0.155238 0.392675 0.5
247 1 0.187832 0.392593 0.5
1188 1 0.204516 0.388766 0.5
1331 1 0.224244 0.3956 0.5
400 1 0.242398 0.382926 0.5
819 1 0.257894 0.395361 0.5
687 1 0.239578 0.401649 0.5
80 1 0.261794 0.376193 0.5
894 1 0.245982 0.41806 0.5
1594 2 0.314731 0.393924 0.5
146 1 0.349098 0.410471 0.5
1048 1 0.342913 0.390375 0.5
269 1 0.36131 0.395624 0.5
533 1 0.375901 0.386183 0.5
335 1 0.401577 0.394594 0.5
592 1 0.419162 0.394799 0.5
948 1 0.456166 0.414332 0.5
1393 1 0.433053 0.374877 0.5
788 1 0.448711 0.377958 0.5
945 1 0.464437 0.393216 0.5
163 1 0.481253 0.388137 0.5
1373 1 0.501108 0.388124 0.5
988 1 0.520031 0.372938 0.5
535 1 0.569716 0.393046 0.5
1163 1 0.632642 0.393083 0.5
1586 2 0.66317 0.396714 0.5
1302 1 0.688009 0.374419 0.5
1585 2 0.769777 0.396339 0.5
33 1 0.815851 0.380775 0.5
1344 1 0.834534 0.381307 0.5
1089 1 0.823364 0.39896 0.5
1098 1 0.851421 0.374183 0.5
1307 1 0.846584 0.396722 0.5
830 1 0.865543 0.386693 0.5
930 1 0.88364 0.384509 0.5
295 1 0.890068 0.365022 0.5
257 1 0.899219 0.396127 0.5
466 1 0.905619 0.37992 0.5
317 1 0.923363 0.385994 0.5
622 1 0.954203 0.403556 0.5
352 1 0.97246 0.401319 0.5
1032 1 0.963064 0.378747 0.5
1303 1 0.979912 0.385327 0.5
12 1 0.0268939 0.436305 0.5
786 1 0.0107534 0.415122 0.5
842 1 0.00576531 0.440377 0.5
70 1 0.0927006 0.428221 0.5
799 1 0.125238 0.408243 0.5
1283 1 0.143716 0.410169 0.5
908 1 0.164196 0.407597 0.5
212 1 0.155648 0.422967 0.5
1151 1 0.185331 0.408332 0.5
704 1 0.172711 0.425549 0.5
513 1 0.205584 0.406046 0.5
982 1 0.189389 0.429105 0.5
1041 1 0.224449 0.414292 0.5
1280 1 0.206785 0.42402 0.5
834 1 0.260084 0.437062 0.5
693 1 0.274182 0.417166 0.5
77 1 0.28626 0.401917 0.5
475 1 0.313171 0.437113 0.5
1392 1 0.294273 0.419921 0.5
316 1 0.338978 0.427525 0.5
966 1 0.445078 0.399523 0.5
462 1 0.468286 0.427612 0.5
1311 1 0.475132 0.406205 0.5
35 1 0.516914 0.406428 0.5
1158 1 0.493682 0.403362 0.5
613 1 0.492717 0.421378 0.5
1403 1 0.546078 0.428031 0.5
1181 1 0.531399 0.387194 0.5
1211 1 0.533562 0.412951 0.5
1244 1 0.567902 0.412161 0.5
360 1 0.586022 0.42416 0.5
519 1 0.586267 0.404755 0.5
956 1 0.609916 0.388915 0.5
1477 1 0.600395 0.416161 0.5
256 1 0.622065 0.410229 0.5
72 1 0.698528 0.406705 0.5
271 1 0.695667 0.431682 0.5
685 1 0.716087 0.411597 0.5
1295 1 0.731126 0.424572 0.5
1174 1 0.741831 0.408155 0.5
202 1 0.781672 0.427953 0.5
1003 1 0.800649 0.391363 0.5
1201 1 0.805134 0.41322 0.5
565 1 0.827692 0.417155 0.5
719 1 0.849738 0.420939 0.5
924 1 0.865184 0.41476 0.5
1019 1 0.877178 0.40233 0.5
586 1 0.892532 0.412025 0.5
1248 1 0.971051 0.432329 0.5
320 1 0.990583 0.415097 0.5
312 1 0.032911 0.454223 0.5
1147 1 0.0517103 0.421749 0.5
727 1 0.0669078 0.432686 0.5
383 1 0.0758386 0.448868 0.5
587 1 0.114774 0.424212 0.5
434 1 0.129641 0.437589 0.5
891 1 0.106353 0.440317 0.5
752 1 0.146675 0.437305 0.5
686 1 0.165059 0.441711 0.5
103 1 0.183739 0.447864 0.5
980 1 0.201278 0.443671 0.5
91 1 0.218035 0.436982 0.5
761 1 0.238325 0.438677 0.5
749 1 0.251851 0.458026 0.5
712 1 0.278574 0.439718 0.5
169 1 0.296485 0.43731 0.5
564 1 0.311951 0.45703 0.5
417 1 0.335181 0.446939 0.5
1545 2 0.424516 0.428972 0.5
1466 1 0.503649 0.446027 0.5
1249 1 0.52451 0.427949 0.5
518 1 0.540437 0.451444 0.5
539 1 0.557761 0.44716 0.5
379 1 0.568199 0.428749 0.5
1313 1 0.584476 0.440925 0.5
739 1 0.596421 0.453643 0.5
338 1 0.614118 0.432805 0.5
920 1 0.630728 0.437499 0.5
1367 1 0.64707 0.439472 0.5
340 1 0.663613 0.449635 0.5
284 1 0.663624 0.431775 0.5
494 1 0.682795 0.420358 0.5
536 1 0.679436 0.442374 0.5
362 1 0.706007 0.444433 0.5
619 1 0.744977 0.445373 0.5
636 1 0.715675 0.431212 0.5
769 1 0.724895 0.445222 0.5
210 1 0.756265 0.427239 0.5
192 1 0.745925 0.474959 0.5
1140 1 0.769228 0.442833 0.5
818 1 0.799984 0.448255 0.5
1236 1 0.798796 0.430037 0.5
1 1 0.832893 0.434346 0.5
1413 1 0.859983 0.435521 0.5
448 1 0.836595 0.457482 0.5
1337 1 0.881201 0.427084 0.5
1352 1 0.907275 0.440192 0.5
1274 1 0.972798 0.4681 0.5
944 1 0.988294 0.443404 0.5
1554 2 0.0113514 0.48646 0.5
183 1 0.0480425 0.439069 0.5
1197 1 0.04162 0.470866 0.5
104 1 0.098409 0.475335 0.5
660 1 0.119646 0.455574 0.5
209 1 0.137499 0.479948 0.5
401 1 0.0920635 0.456385 0.5
576 1 0.151325 0.468843 0.5
674 1 0.178413 0.46617 0.5
117 1 0.213888 0.458924 0.5
155 1 0.197829 0.476606 0.5
305 1 0.221832 0.474153 0.5
38 1 0.231654 0.45895 0.5
1587 2 0.273033 0.476645 0.5
200 1 0.317711 0.473691 0.5
179 1 0.291851 0.45277 0.5
346 1 0.335052 0.465623 0.5
1485 1 0.330069 0.490507 0.5
862 1 0.353993 0.457376 0.5
971 1 0.378487 0.453331 0.5
315 1 0.394082 0.445704 0.5
1321 1 0.408111 0.456493 0.5
1551 2 0.459394 0.463445 0.5
467 1 0.497235 0.467235 0.5
309 1 0.522082 0.445611 0.5
1319 1 0.576248 0.457243 0.5
524 1 0.626017 0.454251 0.5
1119 1 0.629814 0.472862 0.5
975 1 0.645491 0.456286 0.5
1028 1 0.651141 0.473708 0.5
1036 1 0.676648 0.464303 0.5
599 1 0.694032 0.456512 0.5
773 1 0.710519 0.462031 0.5
852 1 0.727748 0.46734 0.5
1422 1 0.817206 0.44454 0.5
1081 1 0.838755 0.478479 0.5
520 1 0.852936 0.453737 0.5
1455 1 0.883238 0.476993 0.5
336 1 0.912433 0.459458 0.5
931 1 0.89713 0.490135 0.5
800 1 0.939273 0.495342 0.5
1024 1 0.949085 0.452168 0.5
476 1 0.966563 0.483122 0.5
850 1 0.0735589 0.49223 0.5
983 1 0.0920128 0.49229 0.5
492 1 0.112703 0.495685 0.5
208 1 0.121415 0.476606 0.5
669 1 0.157335 0.485167 0.5
677 1 0.209475 0.488814 0.5
59 1 0.240339 0.486443 0.5
1296 1 0.36011 0.476693 0.5
1473 1 0.376647 0.479 0.5
1468 1 0.392531 0.464146 0.5
294 1 0.389641 0.491652 0.5
1084 1 0.405626 0.478821 0.5
772 1 0.485815 0.484391 0.5
1113 1 0.463714 0.494905 0.5
387 1 0.524694 0.462784 0.5
1095 1 0.512699 0.477133 0.5
724 1 0.534836 0.477442 0.5
1192 1 0.553211 0.492038 0.5
1555 2 0.590359 0.486023 0.5
191 1 0.655212 0.498824 0.5
1511 2 0.708083 0.491967 0.5
1536 2 0.77206 0.485934 0.5
1423 1 0.856575 0.478296 0.5
370 1 0.872533 0.492495 0.5
1062 1 0.846284 0.495487 0.5
705 1 0.0624778 0.507197 0.5
4 1 0.0796433 0.509909 0.5
526 1 0.085442 0.542754 0.5
357 1 0.0990773 0.509408 0.5
426 1 0.117552 0.517123 0.5
1387 1 0.131286 0.499374 0.5
1291 1 0.104442 0.528171 0.5
1341 1 0.154581 0.508656 0.5
1534 2 0.183489 0.502353 0.5
1053 1 0.214166 0.50726 0.5
140 1 0.244147 0.505533 0.5
741 1 0.223914 0.525613 0.5
1548 2 0.272793 0.517544 0.5
916 1 0.354542 0.50992 0.5
808 1 0.365674 0.492998 0.5
464 1 0.384346 0.507887 0.5
87 1 0.396706 0.524577 0.5
760 1 0.418835 0.525533 0.5
1578 2 0.433993 0.500053 0.5
73 1 0.477969 0.504399 0.5
1447 1 0.497549 0.509839 0.5
1378 1 0.507447 0.494813 0.5
918 1 0.504232 0.532954 0.5
870 1 0.523929 0.49349 0.5
1540 2 0.550995 0.526123 0.5
92 1 0.59426 0.521156 0.5
363 1 0.619745 0.503086 0.5
1412 1 0.631923 0.519858 0.5
350 1 0.675311 0.482044 0.5
52 1 0.652358 0.525952 0.5
182 1 0.671943 0.502656 0.5
239 1 0.693857 0.528592 0.5
1504 2 0.881917 0.529755 0.5
935 1 0.0417952 0.54133 0.5
1434 1 0.048824 0.520641 0.5
1375 1 0.0587188 0.536936 0.5
1112 1 0.0699003 0.52384 0.5
1503 2 0.112596 0.563406 0.5
556 1 0.133272 0.531455 0.5
347 1 0.155663 0.532805 0.5
806 1 0.152117 0.553685 0.5
439 1 0.171946 0.546826 0.5
354 1 0.190058 0.53387 0.5
478 1 0.206824 0.524352 0.5
1462 1 0.207103 0.547097 0.5
455 1 0.225837 0.551903 0.5
277 1 0.244207 0.523033 0.5
226 1 0.303728 0.522538 0.5
453 1 0.328698 0.513231 0.5
776 1 0.373251 0.524749 0.5
25 1 0.353544 0.528954 0.5
1049 1 0.391069 0.540415 0.5
395 1 0.470965 0.522139 0.5
851 1 0.457509 0.543946 0.5
397 1 0.595827 0.54036 0.5
1492 1 0.63336 0.540369 0.5
63 1 0.660361 0.54309 0.5
1255 1 0.671859 0.519661 0.5
661 1 0.716043 0.522743 0.5
1202 1 0.709059 0.539044 0.5
601 1 0.744776 0.5296 0.5
1306 1 0.7181 0.557003 0.5
658 1 0.761417 0.541762 0.5
1252 1 0.758402 0.562292 0.5
306 1 0.729178 0.543165 0.5
1259 1 0.929711 0.551167 0.5
938 1 0.0227468 0.544535 0.5
863 1 0.0479282 0.557787 0.5
742 1 0.0307208 0.561815 0.5
1223 1 0.189032 0.553919 0.5
341 1 0.200391 0.569584 0.5
691 1 0.220854 0.569866 0.5
450 1 0.269975 0.570441 0.5
1189 1 0.247267 0.565928 0.5
1507 2 0.33822 0.563398 0.5
1354 1 0.429814 0.55003 0.5
292 1 0.454948 0.560612 0.5
1122 1 0.473926 0.567608 0.5
507 1 0.419983 0.576655 0.5
385 1 0.493344 0.553863 0.5
471 1 0.51433 0.559742 0.5
1346 1 0.647368 0.555409 0.5
1312 1 0.680399 0.539683 0.5
961 1 0.68303 0.558532 0.5
1285 1 0.714375 0.57546 0.5
44 1 0.734987 0.560827 0.5
828 1 0.793025 0.535194 0.5
1093 1 0.79836 0.555691 0.5
566 1 0.855808 0.556781 0.5
515 1 0.89626 0.562818 0.5
265 1 0.924097 0.572278 0.5
423 1 0.946169 0.542614 0.5
604 1 0.958031 0.558153 0.5
785 1 0.941573 0.562512 0.5
1532 2 0.99363 0.559068 0.5
1353 1 0.0604843 0.568584 0.5
509 1 0.0207607 0.588845 0.5
530 1 0.0569719 0.589109 0.5
955 1 0.208069 0.584418 0.5
715 1 0.313585 0.576565 0.5
1343 1 0.328238 0.599644 0.5
778 1 0.498393 0.571397 0.5
746 1 0.515597 0.578909 0.5
780 1 0.584337 0.59717 0.5
1389 1 0.618035 0.579392 0.5
1330 1 0.624423 0.600891 0.5
288 1 0.657792 0.571787 0.5
529 1 0.638636 0.58885 0.5
643 1 0.692843 0.581748 0.5
1290 1 0.69942 0.560795 0.5
1364 1 0.73507 0.590952 0.5
671 1 0.753518 0.58023 0.5
1402 1 0.775898 0.552025 0.5
199 1 0.774345 0.574239 0.5
574 1 0.788474 0.602506 0.5
236 1 0.808253 0.586428 0.5
1460 1 0.826618 0.598271 0.5
314 1 0.887521 0.578973 0.5
607 1 0.922993 0.591768 0.5
361 1 0.950785 0.57818 0.5
751 1 0.011975 0.615558 0.5
344 1 0.99938 0.601 0.5
1218 1 0.0487225 0.604144 0.5
43 1 0.0658579 0.608266 0.5
48 1 0.0834075 0.607536 0.5
766 1 0.114951 0.613877 0.5
1561 2 0.171622 0.591631 0.5
702 1 0.210132 0.609192 0.5
1527 2 0.262763 0.602426 0.5
767 1 0.292734 0.602006 0.5
611 1 0.284656 0.624174 0.5
349 1 0.3121 0.594748 0.5
490 1 0.386229 0.610247 0.5
1263 1 0.349699 0.597579 0.5
837 1 0.392745 0.589725 0.5
1497 1 0.406247 0.605702 0.5
1281 1 0.481447 0.614001 0.5
291 1 0.488884 0.585381 0.5
1229 1 0.5266 0.59638 0.5
334 1 0.504447 0.614337 0.5
1232 1 0.5632 0.610034 0.5
1457 1 0.547175 0.599239 0.5
225 1 0.582899 0.618907 0.5
457 1 0.602953 0.601999 0.5
418 1 0.644768 0.606882 0.5
1385 1 0.615227 0.620642 0.5
275 1 0.664307 0.592065 0.5
231 1 0.675511 0.578556 0.5
135 1 0.675478 0.623373 0.5
991 1 0.722476 0.609916 0.5
825 1 0.714296 0.593194 0.5
411 1 0.738782 0.613382 0.5
156 1 0.753983 0.599559 0.5
109 1 0.803766 0.608158 0.5
1461 1 0.818471 0.622595 0.5
1087 1 0.90236 0.585815 0.5
51 1 0.938868 0.613071 0.5
1187 1 0.895517 0.605407 0.5
843 1 0.948681 0.597492 0.5
406 1 0.979722 0.604928 0.5
1203 1 0.981873 0.588204 0.5
1172 1 0.00437015 0.633554 0.5
1025 1 0.0217779 0.637524 0.5
468 1 0.0294014 0.620935 0.5
82 1 0.038121 0.638966 0.5
978 1 0.0558837 0.62569 0.5
1235 1 0.0770377 0.629363 0.5
178 1 0.0636116 0.641359 0.5
358 1 0.0979263 0.62063 0.5
157 1 0.129813 0.624989 0.5
1278 1 0.194509 0.618112 0.5
474 1 0.183944 0.640532 0.5
1238 1 0.214269 0.636902 0.5
1406 1 0.225728 0.617284 0.5
1008 1 0.310577 0.613868 0.5
1020 1 0.389167 0.628093 0.5
552 1 0.460538 0.614611 0.5
906 1 0.47023 0.63003 0.5
1359 1 0.48847 0.63082 0.5
198 1 0.504468 0.637646 0.5
414 1 0.524782 0.631869 0.5
139 1 0.54698 0.620054 0.5
1349 1 0.548999 0.64095 0.5
323 1 0.562181 0.629516 0.5
814 1 0.635002 0.623613 0.5
1213 1 0.626467 0.647444 0.5
297 1 0.657676 0.626716 0.5
879 1 0.689127 0.640172 0.5
1260 1 0.686468 0.608586 0.5
1481 1 0.705737 0.647636 0.5
29 1 0.695093 0.661613 0.5
877 1 0.710046 0.624569 0.5
1453 1 0.723901 0.649845 0.5
136 1 0.732892 0.630621 0.5
1508 2 0.762861 0.631592 0.5
371 1 0.789829 0.618795 0.5
1410 1 0.806886 0.635875 0.5
713 1 0.836503 0.61573 0.5
293 1 0.857082 0.623127 0.5
359 1 0.921195 0.620524 0.5
762 1 0.954382 0.621857 0.5
420 1 0.969684 0.631447 0.5
1046 1 0.991096 0.616583 0.5
698 1 0.0247313 0.656588 0.5
567 1 0.0554879 0.675399 0.5
94 1 0.0499722 0.655177 0.5
394 1 0.0734605 0.6753 0.5
47 1 0.0844922 0.662303 0.5
1535 2 0.118358 0.651406 0.5
268 1 0.147075 0.641758 0.5
1333 1 0.15781 0.628723 0.5
382 1 0.178378 0.65691 0.5
1382 1 0.160271 0.65805 0.5
1351 1 0.190958 0.668889 0.5
144 1 0.206073 0.654737 0.5
559 1 0.228457 0.656067 0.5
821 1 0.237837 0.638202 0.5
1011 1 0.248469 0.658814 0.5
1366 1 0.356388 0.654485 0.5
820 1 0.372675 0.647598 0.5
922 1 0.3629 0.628277 0.5
353 1 0.411876 0.648607 0.5
926 1 0.411094 0.665583 0.5
976 1 0.458755 0.643401 0.5
807 1 0.478219 0.64554 0.5
1042 1 0.496368 0.671041 0.5
549 1 0.492417 0.65339 0.5
1454 1 0.520454 0.648583 0.5
969 1 0.536183 0.656012 0.5
840 1 0.552832 0.660192 0.5
1039 1 0.573703 0.648232 0.5
1176 1 0.606708 0.640849 0.5
1445 1 0.646872 0.646093 0.5