ITEM: TIMESTEP
1000
ITEM: NUMBER OF ATOMS
5500
ITEM: BOX BOUNDS pp pp pp
-3.0000000000000000e+01 3.0000000000000000e+01
-3.0000000000000000e+01 3.0000000000000000e+01
-3.0000000000000000e+01 3.0000000000000000e+01
ITEM: ATOMS id type xs ys zs
1363 1 0.028844 0.0364124 0.019103
2290 1 0.113208 0.0257532 0.0189186
4550 1 0.124783 0.0237035 0.052197
1212 1 0.594138 0.996904 0.00623109
4986 1 0.702848 0.988108 0.0203036
4598 1 0.986759 0.0161711 0.00761894
4707 1 0.00973534 0.0230435 0.0148865
4992 1 0.331 0.0575923 0.00879348
3204 1 0.607009 0.0455318 0.0240404
3821 1 0.628198 0.0463029 0.0203719
1655 1 0.873729 0.0558882 0.994947
3895 1 0.144996 0.0369798 0.0156663
2823 1 0.200275 0.0638433 0.0204378
1001 1 0.495678 0.0565091 0.984064
2513 1 0.092626 0.0715733 0.00794151
436 1 0.538866 0.0870806 0.0281688
5139 2 0.887918 0.0779879 0.00895308
4852 1 0.183571 0.120229 0.0226921
497 1 0.388976 0.10012 0.00734952
1557 1 0.123022 0.131219 0.01982
3212 1 0.21529 0.143314 0.0263808
2990 1 0.613607 0.127331 0.0329265
4196 1 0.819563 0.121886 0.0256438
1688 1 0.547567 0.134281 0.0194124
4061 1 0.613236 0.13635 0.00531724
2211 1 0.903851 0.139626 0.0233117
1730 1 0.993198 0.162267 0.015305
2845 1 0.136543 0.21359 0.0411964
100 1 0.159902 0.1703 0.0231666
1015 1 0.549711 0.188006 0.996582
4752 1 0.584672 0.199626 0.0159869
279 1 0.797137 0.213689 0.992739
2111 1 0.0576435 0.211817 0.00331841
4451 1 0.719089 0.210166 0.0374823
697 1 0.964293 0.205313 0.0037044
3268 1 0.16714 0.265115 0.0198712
111 1 0.164683 0.247717 0.0134008
2906 1 0.669962 0.220522 1.00003
2051 1 0.790867 0.262085 0.03431
3678 1 0.389464 0.264137 0.998324
1407 1 0.825813 0.267156 0.0226351
2296 1 0.267042 0.320851 0.0080076
18 1 0.354935 0.29719 0.0148618
4909 1 0.163005 0.342423 0.996415
2944 1 0.263603 0.342187 0.00508462
2941 1 0.376968 0.311082 0.050714
5171 2 0.408482 0.345624 0.00966182
2362 1 0.567874 0.312047 0.978985
4583 1 0.640735 0.311207 0.00766401
617 1 0.89232 0.33744 0.015023
3815 1 0.0567869 0.368543 0.0194254
456 1 0.0502858 0.335854 0.0172614
3057 1 0.0683869 0.328341 0.0205107
2909 1 0.840184 0.331162 0.0191553
274 1 0.0655492 0.372573 0.979627
1811 1 0.187442 0.351228 0.998091
2617 1 0.496341 0.361367 0.0347781
5094 2 0.312008 0.363881 0.987597
948 1 0.458858 0.391698 0.0156057
5376 2 0.889361 0.414149 0.0111201
2977 1 0.454692 0.414396 0.00724665
4801 1 0.595604 0.422176 0.0181991
2020 1 0.523981 0.441951 0.016031
1313 1 0.596297 0.457913 0.0189105
4362 1 0.586643 0.43814 0.0126813
739 1 0.598827 0.421517 0.0454642
2302 1 0.631029 0.42643 -2.06588e-05
3764 1 0.015751 0.436032 0.03174
2266 1 0.0203881 0.466547 0.999605
4956 1 0.235938 0.466878 0.990305
417 1 0.340857 0.424647 0.0114176
1832 1 0.794048 0.478711 0.00381057
4095 1 0.689641 0.487471 0.0227785
2481 1 0.854952 0.515928 0.0125889
2433 1 0.873229 0.449673 0.956902
2970 1 0.230716 0.514027 0.00335512
2479 1 0.304526 0.484337 0.997948
3817 1 0.973619 0.502867 0.00403109
3335 1 0.986416 0.489013 0.00205422
354 1 0.193995 0.504233 0.0303136
4337 1 0.692942 0.537368 0.036888
2090 1 0.0191541 0.576764 0.0298945
3711 1 0.0779296 0.576046 0.0435898
806 1 0.188902 0.53362 0.00248178
566 1 0.851773 0.548115 0.987866
4639 1 0.281227 0.575333 0.0174111
3746 1 0.440969 0.593888 0.0285325
3657 1 0.0884938 0.618629 0.027693
1281 1 0.472571 0.570522 0.00241233
3891 1 0.52419 0.6138 0.989856
4955 1 0.530363 0.611554 0.00811963
48 1 0.111622 0.625799 0.0119544
2539 1 0.394319 0.613262 0.013722
926 1 0.447635 0.644637 0.996839
135 1 0.69845 0.651755 0.0235689
3008 1 0.126048 0.644956 0.0368361
2334 1 0.292471 0.635979 0.998249
3113 1 0.29501 0.641739 0.0182998
4103 1 0.444096 0.653637 0.0193228
3289 1 0.646165 0.652291 0.00207804
4564 1 0.669738 0.655715 0.0329408
1366 1 0.369602 0.68643 0.0227704
205 1 0.0868246 0.673672 0.0262276
1210 1 0.348248 0.700788 0.00527873
5144 2 0.0870031 0.711185 0.0309139
2561 1 0.141757 0.717407 0.0320473
5138 2 0.246655 0.728578 0.0243009
3512 1 0.429447 0.748037 0.0424224
816 1 0.0527339 0.736393 0.0184152
3090 1 0.128741 0.733631 0.0200043
3747 1 0.480972 0.750102 0.0118034
2919 1 0.465021 0.736648 0.00657213
1876 1 0.532576 0.731341 0.00220083
2760 1 0.548622 0.740088 0.986456
5274 2 0.852357 0.759134 0.0121022
2121 1 0.671971 0.772793 0.994402
5022 2 0.802343 0.800188 0.0140472
2459 1 0.576528 0.823425 0.0195359
4460 1 0.746617 0.776959 0.0117242
2365 1 0.666938 0.815514 0.0189006
750 1 0.271741 0.866146 0.013712
4311 1 0.695002 0.834545 0.0182538
5052 2 0.755076 0.85362 0.0292144
4975 1 0.267077 0.855191 0.00101641
1819 1 0.737753 0.887088 0.0179368
4078 1 0.851194 0.899143 0.016921
1904 1 0.915502 0.865795 0.993386
3667 1 0.0804426 0.906113 0.00495356
2054 1 0.407053 0.855879 0.0213854
4556 1 0.438883 0.858957 0.0427337
4165 1 0.75085 0.882602 0.00502054
5453 2 0.816143 0.888703 0.0308074
2666 1 0.296886 0.922893 0.00629651
2081 1 0.799734 0.93098 0.0326788
3829 1 0.225018 0.947675 0.00817845
4348 1 0.25983 0.968686 0.0173622
726 1 0.27319 0.910509 0.0215022
2959 1 0.259424 0.945248 0.0208059
2671 1 0.875478 0.964369 0.00448695
211 1 0.897645 0.943614 0.0438458
4687 1 0.387522 0.967634 0.0140611
4135 1 0.410097 0.97285 0.0149039
390 1 0.651413 0.970137 0.0085684
81 1 0.13427 0.979071 0.0273472
3505 1 0.266955 0.960806 0.032789
2105 1 0.459166 0.96116 0.026935
1332 1 0.193612 0.000254364 0.0478251
3263 1 0.968702 0.99247 0.0198553
3126 1 0.803915 0.0608787 0.0336083
4038 1 0.1719 0.0728412 0.020193
1753 1 0.313287 0.0532079 0.0120025
3450 1 0.334709 0.100554 0.0423709
4140 1 0.411174 0.0826241 0.046145
4122 1 0.609459 0.0276458 0.0353428
3947 1 0.810765 0.0798528 0.0246621
23 1 0.080017 0.0773504 0.0462598
1208 1 0.0871692 0.0944186 0.0470504
3596 1 0.0897319 0.0992866 0.0185233
40 1 0.100718 0.0846927 0.0731735
5449 2 0.238321 0.1051 0.0335421
4519 1 0.33111 0.129867 0.0938211
1549 1 0.54151 0.0805009 0.0459706
126 1 0.0770778 0.102238 0.0335568
5425 2 0.200575 0.0952045 0.0177626
3770 1 0.556519 0.0874493 0.0200297
74 1 0.659568 0.113061 0.0380131
412 1 0.443674 0.114747 0.0361314
2912 1 0.618838 0.122794 0.0547008
1362 1 0.850708 0.161211 0.0493535
4026 1 0.562904 0.162298 0.0328638
4179 1 0.914722 0.156722 0.0534661
1262 1 0.896904 0.223315 0.0379887
5473 2 0.929706 0.193274 0.0270282
2212 1 0.97555 0.202795 0.032259
4003 1 0.880365 0.209992 0.0319834
3901 1 0.976139 0.243686 0.0204694
3319 1 0.975671 0.226779 0.0309219
3524 1 0.982598 0.265238 0.0423034
4338 1 0.984272 0.212072 0.0170869
1631 1 0.0525352 0.262126 0.0284312
3324 1 0.353437 0.257272 0.97377
5278 2 0.891504 0.259623 0.00878944
3861 1 0.200261 0.304516 0.0201887
1807 1 0.262723 0.280736 0.0277772
3018 1 0.34337 0.29175 0.0330587
3326 1 0.603241 0.267645 0.031185
763 1 0.614224 0.285645 0.034852
5435 2 0.650304 0.282005 0.00373758
50 1 0.358789 0.307237 0.0441358
408 1 0.87992 0.288065 0.0414867
1234 1 0.00689602 0.325512 0.0448251
1703 1 0.716466 0.296386 0.0365693
2410 1 0.758035 0.324169 0.0557792
5380 2 0.616488 0.351225 0.0216143
2471 1 0.810551 0.360333 0.0316401
1480 1 0.0665174 0.355066 0.0230575
4376 1 0.800445 0.330706 0.0341275
3915 1 0.457824 0.391341 0.0496878
1163 1 0.633913 0.407079 0.00924099
3238 1 0.164176 0.427936 0.0237852
1976 1 0.274774 0.408662 0.0623778
462 1 0.459304 0.414717 0.0255614
3647 1 0.477161 0.408543 0.0238201
4483 1 0.475895 0.405644 0.0515943
101 1 0.661979 0.409032 0.0196056
1201 1 0.792853 0.412671 0.0249613
2228 1 0.798979 0.404823 0.0465437
383 1 0.0706355 0.431122 0.0506223
4033 1 0.935539 0.424551 0.0539543
4690 1 0.963674 0.472223 0.033858
4692 1 0.282136 0.473579 0.0295331
2927 1 0.344874 0.44618 0.0362501
4149 1 0.942765 0.465917 0.0212723
5219 2 0.0404285 0.48703 0.0218667
4466 1 0.417597 0.501793 0.0419831
2864 1 0.20467 0.506098 0.000739297
1412 1 0.64431 0.518096 0.020884
4521 1 0.7718 0.521803 0.0406553
3636 1 0.00513622 0.522302 0.0211701
3818 1 0.667001 0.560396 0.0454361
63 1 0.671081 0.507648 0.0518695
4700 1 0.853059 0.514874 0.0334919
4763 1 0.402495 0.565441 0.031161
2949 1 0.658956 0.552665 0.0298948
2773 1 0.0393811 0.588491 0.046953
742 1 0.00314813 0.557196 0.0578184
1218 1 0.0257206 0.582697 0.0714532
490 1 0.34771 0.582254 0.0454101
1330 1 0.652526 0.570259 0.0162594
5267 2 0.792635 0.587878 0.0586839
3346 1 0.0155004 0.615223 0.0357457
1539 1 0.282047 0.598377 0.0578283
4695 1 0.45117 0.591065 0.0415613
275 1 0.655519 0.59778 0.0235626
2803 1 0.18698 0.63583 0.0441605
1349 1 0.556415 0.640311 0.0375265
1708 1 0.572828 0.649327 0.0368538
1213 1 0.641686 0.651892 0.0195799
47 1 0.0978107 0.634708 0.0483589
4803 1 0.115786 0.632088 0.0282957
840 1 0.583728 0.658059 0.0496789
3304 1 0.0343981 0.691928 0.0291833
3217 1 0.528202 0.701609 0.0570425
2112 1 0.774548 0.721661 0.0394393
1320 1 0.733908 0.708011 0.0217342
3062 1 0.753101 0.730124 0.0260734
3014 1 0.773913 0.743604 0.0262345
4714 1 0.789339 0.744832 0.0486814
3047 1 0.595612 0.752003 0.00688512
5180 2 0.88935 0.723196 0.0431354
2763 1 0.934967 0.770355 0.0384813
1899 1 0.961765 0.752667 0.0584903
1580 1 0.608175 0.783704 0.0357903
2563 1 0.681157 0.783543 0.0238601
4198 1 0.427286 0.817876 0.0256016
2025 1 0.220404 0.780804 0.0688514
290 1 0.331803 0.818769 0.0155384
4225 1 0.740501 0.817772 0.0429881
3180 1 0.64558 0.855611 0.0467376
4666 1 0.00801485 0.829677 0.0215163
882 1 0.112846 0.900796 0.0346057
3201 1 0.683849 0.855499 0.041707
3107 1 0.722885 0.879508 0.0276265
4339 1 0.135797 0.860676 0.0374881
2566 1 0.611776 0.887919 0.0350051
3145 1 0.888218 0.884656 0.0560529
1634 1 0.690606 0.917808 0.03181
5150 2 0.768855 0.932887 0.0216759
3535 1 0.0736407 0.944443 0.0514232
2497 1 0.930616 0.933229 0.0408289
1670 1 0.881213 0.96563 0.0437297
433 1 0.336888 0.996897 0.0118738
3128 1 0.517529 0.00187438 0.0341026
3166 1 0.073706 0.0199866 0.0346563
4776 1 0.378532 0.00411714 0.0289095
2855 1 0.367424 0.995327 0.0514602
1018 1 0.727789 0.0331298 0.0646568
2619 1 0.715765 0.0425066 0.0809996
532 1 0.268702 0.0391052 0.0804897
4174 1 0.552687 0.00899045 0.0759836
3805 1 0.915182 0.0552519 0.0340343
4751 1 0.0757708 0.0964864 0.0624308
4978 1 0.774015 0.0506778 0.0657898
4993 1 0.954354 0.093431 0.056199
3750 1 0.00312913 0.0887713 0.0712568
1878 1 0.53374 0.0985788 0.0505656
36 1 0.551374 0.095853 0.043339
5408 2 0.634164 0.13756 0.0838326
3981 1 0.660553 0.133199 0.0575509
5141 2 0.387357 0.125019 0.107713
4216 1 0.696206 0.136017 0.071705
3356 1 0.0191752 0.145245 0.0403771
3279 1 0.0864167 0.158096 0.069619
5232 2 0.462313 0.141139 0.0624589
4142 1 0.772827 0.159831 0.0524524
451 1 0.382825 0.194301 0.0747684
2064 1 0.623061 0.184866 0.0697367
4250 1 0.222676 0.202967 0.0902793
1431 1 0.340491 0.235319 0.0381326
5430 2 0.556812 0.203859 0.0632498
631 1 0.972206 0.241699 0.0542474
4793 1 0.565508 0.233197 0.0557866
2326 1 0.56971 0.222961 0.0410291
1814 1 0.654362 0.231491 0.0356982
1479 1 0.676791 0.234694 0.0226727
4915 1 0.736227 0.2594 0.0480459
4962 1 0.762442 0.190954 0.0264531
3411 1 0.986581 0.199656 0.0513238
4694 1 0.450264 0.265209 0.0722551
3473 1 0.463406 0.2128 0.0892814
3631 1 0.560286 0.241261 0.0791269
326 1 0.575963 0.268209 0.0627191
280 1 0.683318 0.246627 0.0369836
4040 1 0.723142 0.251861 0.0719097
4816 1 0.874697 0.223151 0.0565593
4571 1 0.878288 0.241699 0.0677515
3728 1 0.525203 0.28582 0.0647879
5317 2 0.542285 0.258737 0.0583993
3887 1 0.601689 0.26891 0.0697349
5253 2 0.322955 0.268567 0.0646667
3407 1 0.342563 0.317111 0.0844071
3723 1 0.413424 0.301591 0.0526151
5082 2 0.471575 0.295477 0.0614653
3127 1 0.35454 0.331443 0.0675644
4356 1 0.298326 0.324986 0.0658165
62 1 0.806868 0.355493 0.0487805
4108 1 0.145676 0.410857 0.0628257
4401 1 0.180628 0.392462 0.0697317
5423 2 0.248415 0.434068 0.0528833
5200 2 0.320726 0.377687 0.0936368
592 1 0.413336 0.396644 0.0610791
5110 2 0.476884 0.435745 0.0954289
1003 1 0.787544 0.427716 0.0348405
2494 1 0.810825 0.407692 0.0324161
467 1 0.472184 0.446356 0.0504151
3843 1 0.011535 0.463569 0.0944456
3313 1 0.551227 0.457555 0.0725185
1036 1 0.682949 0.503682 0.0737353
931 1 0.899162 0.449175 0.0368846
3003 1 0.954108 0.482606 0.0677367
1989 1 0.434036 0.491351 0.0623991
1255 1 0.679504 0.536946 0.0577314
661 1 0.724418 0.5383 0.0690955
3671 1 0.274073 0.533733 0.0567212
1093 1 0.801311 0.556985 0.0831914
2645 1 0.927227 0.567166 0.053634
3903 1 0.93838 0.589028 0.0677307
3844 1 0.050426 0.568446 0.0308872
4050 1 0.0194319 0.582531 0.05479
3391 1 0.50442 0.566458 0.0536504
3364 1 0.667019 0.58277 0.0399113
1364 1 0.7481 0.589657 0.0713744
109 1 0.822587 0.584416 0.0483926
4145 1 0.958444 0.632953 0.0356287
1528 1 0.245167 0.622777 0.0303458
3131 1 0.146467 0.67073 0.083629
1791 1 0.22595 0.633148 0.0419089
4621 1 0.245207 0.659552 0.0630836
1011 1 0.2403 0.660102 0.0372633
3737 1 0.78006 0.614033 0.0513626
5240 2 0.00486078 0.64962 0.0512574
737 1 0.398324 0.692372 0.0225004
624 1 0.390004 0.679928 0.0879175
3061 1 0.457487 0.710238 0.0446931
4010 1 0.671593 0.699874 0.0502615
2750 1 0.10671 0.735685 0.0618587
1054 1 0.333877 0.743076 0.0703145
5419 2 0.744123 0.714597 0.0700469
3000 1 0.429572 0.766871 0.0481155
3569 1 0.824363 0.739715 0.0542191
2982 1 0.97358 0.757621 0.0398743
5404 2 0.355733 0.779721 0.0539209
1190 1 0.653171 0.807008 0.0519933
4764 1 0.821401 0.803448 0.0384211
112 1 0.035324 0.798865 0.04327
792 1 0.656443 0.842035 0.0544034
3338 1 0.339368 0.883168 0.0512432
2997 1 0.416821 0.858368 0.0839401
3472 1 0.783553 0.857761 0.0428163
869 1 0.963901 0.856571 0.0587556
2402 1 0.0456304 0.868708 0.032172
3838 1 0.153037 0.87468 0.0651114
2770 1 0.190172 0.912472 0.0456395
4228 1 0.440333 0.904573 0.0353624
4335 1 0.220187 0.980049 0.0449775
3707 1 0.539623 0.980972 0.0485968
1416 1 0.124481 0.997616 0.050954
4205 1 0.21134 0.995633 0.0372509
4905 1 0.203386 0.98151 0.0730534
2708 1 0.134919 0.0272435 0.071977
1323 1 0.219717 0.0372096 0.0692328
5333 2 0.606434 1.00014 0.0796223
399 1 0.841754 0.0204696 0.122671
10 1 0.881373 0.966872 0.10483
3494 1 0.461773 0.00855482 0.0975409
2329 1 0.440055 0.0599136 0.0829445
2722 1 0.112282 0.0564709 0.102521
4291 1 0.497147 0.0573179 0.0960048
230 1 0.0155997 0.0878008 0.0885087
578 1 0.12942 0.0703885 0.0614716
3227 1 0.186137 0.0831034 0.0836256
2834 1 0.780804 0.0649688 0.0751076
5221 2 0.0526189 0.0896492 0.0451244
7 1 0.0837789 0.103361 0.0895468
3797 1 0.612503 0.114516 0.106475
4029 1 0.919496 0.0982929 0.0811779
5236 2 0.0138112 0.155278 0.0824234
2499 1 0.747166 0.121627 0.10259
4640 1 0.78441 0.149026 0.072542
1717 1 0.927742 0.113114 0.0892744
2637 1 0.0619706 0.170803 0.0830019
2078 1 0.14343 0.165203 0.0638462
4745 1 0.138848 0.164962 0.0817713
3673 1 0.265476 0.146591 0.0720242
5257 2 0.873965 0.125106 0.0913284
3934 1 0.21408 0.166236 0.0886711
525 1 0.248401 0.143363 0.0820493
2978 1 0.225243 0.179524 0.0957979
4979 1 0.245715 0.153954 0.112742
2901 1 0.316438 0.188828 0.0816736
1831 1 0.301931 0.20647 0.0470056
560 1 0.317038 0.210134 0.0919607
4957 1 0.744747 0.201237 0.0770558
386 1 0.892167 0.213548 0.0679637
3522 1 0.928944 0.183256 0.0897957
3366 1 0.97795 0.216877 0.0860376
4415 1 0.364298 0.243809 0.068392
5132 2 0.417885 0.214714 0.0873114
2951 1 0.589446 0.255222 0.0612011
5124 2 0.689261 0.220384 0.0741348
2853 1 0.294173 0.261868 0.0932469
2417 1 0.34457 0.256805 0.0987158
2926 1 0.63035 0.230999 0.0633655
5172 2 0.0788835 0.291645 0.107586
4203 1 0.944601 0.265654 0.0723796
2013 1 0.95042 0.241965 0.0863943
874 1 0.350508 0.290169 0.0827026
5429 2 0.510174 0.285241 0.0873298
324 1 0.850894 0.305497 0.0598123
960 1 0.426588 0.325827 0.0626983
289 1 0.684726 0.285362 0.0955877
4983 1 0.557698 0.36576 0.0923219
709 1 0.781219 0.327341 0.0882383
5421 2 0.839798 0.346784 0.0861875
642 1 0.99515 0.365961 0.0848742
988 1 0.525764 0.389437 0.0991985
3345 1 0.656063 0.377569 0.0810242
819 1 0.235967 0.383624 0.0882801
1393 1 0.452776 0.380407 0.0840439
3958 1 0.566712 0.383896 0.0929922
2088 1 0.666996 0.402258 0.0776349
4229 1 0.30038 0.435497 0.0649175
360 1 0.617084 0.393789 0.0669919
72 1 0.661216 0.421927 0.0901889
320 1 0.948667 0.398057 0.0793175
1768 1 0.573832 0.461741 0.0753099
3068 1 0.402542 0.5133 0.0606333
3780 1 0.946941 0.500394 0.0842974
1629 1 0.0341516 0.492756 0.0662827
1969 1 0.136905 0.533611 0.0779423
918 1 0.538602 0.509842 0.0531746
2721 1 0.808448 0.561456 0.061839
2133 1 0.648936 0.584973 0.0905312
1664 1 0.633593 0.598449 0.07592
314 1 0.895041 0.596984 0.0735809
1008 1 0.301177 0.616254 0.0881876
3972 1 0.535204 0.613967 0.0926619
4446 1 0.794212 0.599679 0.118117
3883 1 0.922206 0.61228 0.0974642
3020 1 0.930861 0.589251 0.0837665
3991 1 0.275965 0.646905 0.110463
2737 1 0.339705 0.610812 0.0760589
1481 1 0.743607 0.659159 0.0769034
199 1 0.761829 0.632835 0.0717377
713 1 0.816274 0.590091 0.0889282
1231 1 0.853014 0.626394 0.0748197
4673 1 0.0287473 0.64961 0.108335
2246 1 0.438395 0.643714 0.056869
1817 1 0.475546 0.696494 0.0727545
3594 1 0.831154 0.700815 0.0750147
892 1 0.991263 0.679533 0.0719648
4274 1 0.290123 0.681806 0.0510786
937 1 0.453581 0.712049 0.0703157
3144 1 0.845266 0.679368 0.0977145
1401 1 0.207248 0.7194 0.104679
5388 2 0.319193 0.713119 0.0621296
3865 1 0.372387 0.731074 0.057333
3260 1 0.446744 0.741234 0.0758335
2174 1 0.588716 0.699458 0.0835702
623 1 0.629203 0.726015 0.0817137
4605 1 0.732768 0.746761 0.0745746
1108 1 0.735682 0.749136 0.105635
3114 1 0.860401 0.719327 0.0853029
2069 1 0.207685 0.743268 0.0604815
444 1 0.218737 0.735173 0.102378
2118 1 0.268066 0.788344 0.0894554
2163 1 0.433079 0.754944 0.110023
3959 1 0.54249 0.734804 0.0858851
3215 1 0.846319 0.742632 0.0885683
458 1 0.140129 0.781601 0.0809717
3961 1 0.746191 0.775555 0.0819805
3567 1 0.781112 0.773465 0.0798652
1162 1 0.931643 0.779863 0.0961032
2182 1 0.377426 0.799882 0.0853972
4888 1 0.460784 0.780434 0.0916188
670 1 0.450247 0.795149 0.087094
1840 1 0.375936 0.812519 0.0987801
254 1 0.561959 0.805776 0.0897479
2243 1 0.359254 0.815817 0.105219
4558 1 0.645549 0.813353 0.0714339
1085 1 0.0462765 0.87499 0.0815291
4244 1 0.444884 0.876384 0.0671157
2664 1 0.557069 0.876707 0.0786927
3067 1 0.556778 0.872716 0.102998
4293 1 0.590902 0.894294 0.0884241
5091 2 0.0147369 0.858388 0.0762994
3136 1 0.567804 0.845226 0.0697566
3626 1 0.574004 0.869213 0.0892075
5309 2 0.756799 0.891781 0.0782094
2017 1 0.781603 0.91479 0.079397
3533 1 0.812045 0.903627 0.113355
4809 1 0.0634574 0.930633 0.0800944
4173 1 0.558451 0.942404 0.0996047
3476 1 0.683908 0.954566 0.1045
2542 1 0.704378 0.933726 0.11662
1599 1 0.684371 0.930178 0.0949883
890 1 0.808225 0.988789 0.0781305
4997 1 0.0500269 0.991539 0.0764831
4628 1 0.138993 0.997314 0.0770622
2808 1 0.146639 0.017762 0.0828856
939 1 0.125258 0.9643 0.0868724
4864 1 0.0206641 0.0624582 0.123618
541 1 0.0678412 0.998753 0.120574
4509 1 0.475451 0.0209244 0.112684
4306 1 0.593269 0.0316895 0.103066
2894 1 0.642814 0.0214389 0.0819663
480 1 0.60954 0.9996 0.117185
2571 1 0.634909 0.0214322 0.113543
3971 1 0.746519 0.00839341 0.106741
1992 1 0.025375 0.0169489 0.0996474
3653 1 0.47904 0.0574056 0.0741488
2129 1 0.678868 0.0184138 0.108348
3872 1 0.733416 0.058961 0.105098
1175 1 0.926967 0.0334993 0.117028
3735 1 0.93842 0.0197342 0.13185
1894 1 0.313571 0.0485674 0.092636
3756 1 0.675648 0.0671575 0.0809632
1508 1 0.693299 0.075264 0.114869
5050 2 0.779173 0.0859194 0.106653
551 1 0.0116412 0.0966727 0.108617
3286 1 0.0272837 0.117558 0.100656
3716 1 0.208306 0.148186 0.0866979
3218 1 0.499277 0.106622 0.0914079
3602 1 0.503447 0.0854575 0.115186
1739 1 0.903929 0.0981147 0.110547
2745 1 0.0126531 0.207563 0.103508
1103 1 0.223654 0.172614 0.12495
2218 1 0.215945 0.185048 0.107592
2005 1 0.729548 0.160966 0.083841
684 1 0.383776 0.195504 0.116736
131 1 0.736038 0.179186 0.0860585
1356 1 0.110657 0.230338 0.127445
2865 1 0.304781 0.271743 0.10923
3137 1 0.602229 0.244841 0.0943574
1433 1 0.120557 0.245606 0.104269
1880 1 0.190639 0.2994 0.121083
2706 1 0.503608 0.271437 0.119492
2531 1 0.783149 0.306748 0.0959602
2267 1 0.959329 0.290883 0.105914
537 1 0.346926 0.31335 0.103598
1443 1 0.770497 0.327922 0.11483
1405 1 0.447939 0.339358 0.103894
4019 1 0.518931 0.34655 0.126971
2795 1 0.557313 0.320953 0.102227
373 1 0.766733 0.316542 0.100225
4996 1 0.863523 0.362143 0.105666
466 1 0.87841 0.394652 0.0854202
5405 2 0.0207969 0.376865 0.0896609
4725 1 0.122536 0.391636 0.0858833
2843 1 0.145963 0.408599 0.0924301
2567 1 0.115761 0.390744 0.108687
894 1 0.24936 0.398894 0.118809
4906 1 0.117759 0.423018 0.0971958
719 1 0.834181 0.429708 0.101578
4569 1 0.896365 0.421724 0.101546
103 1 0.165266 0.446804 0.107722
4390 1 0.389104 0.423464 0.118996
4627 1 0.439215 0.440872 0.0913129
2657 1 0.658671 0.430158 0.132969
2593 1 0.702007 0.464844 0.112127
3004 1 0.892112 0.491404 0.0996161
3658 1 0.740884 0.49164 0.123092
1081 1 0.827578 0.502702 0.110029
492 1 0.116868 0.502633 0.070498
3830 1 0.255418 0.509418 0.110529
52 1 0.661697 0.515466 0.0842014
2686 1 0.0204164 0.547565 0.114392
3555 1 0.337699 0.550929 0.101694
3387 1 0.436111 0.540018 0.0841236
288 1 0.660197 0.564566 0.103911
4661 1 0.306227 0.57773 0.0899385
2995 1 0.204681 0.586833 0.12849
2725 1 0.237251 0.590706 0.0986368
2846 1 0.255591 0.596459 0.142335
2506 1 0.677532 0.618036 0.105869
4844 1 0.959174 0.649391 0.112425
1963 1 0.978354 0.60734 0.113497
2595 1 0.104941 0.646335 0.124827
2928 1 0.56211 0.661815 0.150104
1039 1 0.572215 0.651573 0.100665
5384 2 0.778698 0.676027 0.104226
1326 1 0.861421 0.684846 0.078468
1663 1 0.202465 0.735999 0.0928449
3358 1 0.830171 0.697674 0.103649
3015 1 0.862722 0.685405 0.115732
2948 1 0.848475 0.702222 0.111668
3056 1 0.197283 0.70944 0.123498
4320 1 0.216109 0.718844 0.12595
4897 1 0.842544 0.748014 0.121819
4966 1 0.505848 0.732228 0.0872638
3237 1 0.307414 0.790388 0.109664
1892 1 0.549654 0.79117 0.103003
3373 1 0.957436 0.754624 0.110659
4202 1 0.250099 0.795095 0.0889591
4500 1 0.890852 0.797739 0.110141
3290 1 0.91631 0.773873 0.117001
2098 1 0.0974676 0.805001 0.121497
4738 1 0.264278 0.840007 0.0873677
5293 2 0.524295 0.833102 0.10991
5175 2 0.0352449 0.835457 0.116497
258 1 0.245834 0.800307 0.118334
2647 1 0.49155 0.813234 0.126658
2382 1 0.617545 0.817957 0.0979639
876 1 0.00985014 0.85932 0.106661
4860 1 0.00407556 0.869491 0.12527
3379 1 0.175691 0.852501 0.109041
575 1 0.319725 0.898762 0.117166
3806 1 0.783621 0.880163 0.0893446
2967 1 0.302079 0.869649 0.0981149
4891 1 0.381647 0.933123 0.0945381
3406 1 0.808409 0.890302 0.135679
3813 1 0.97941 0.905134 0.105078
5012 2 0.727362 0.968534 0.101523
5312 2 0.162446 0.959315 0.132279
625 1 0.195846 0.950795 0.11831
441 1 0.217905 0.958842 0.0986137
217 1 0.465302 0.952901 0.131517
4472 1 0.622432 0.99601 0.130697
2900 1 0.0602368 0.997379 0.0994929
1746 1 0.208425 0.979379 0.099825
1230 1 0.500664 0.00362726 0.0909456
3776 1 0.635491 1.00003 0.0974133
3921 1 0.0233344 0.0318365 0.152229
4136 1 0.0601092 0.0119956 0.145634
694 1 0.748265 0.0277919 0.138714
1438 1 0.851006 0.0187874 0.107135
1116 1 0.200188 0.0609844 0.140601
2508 1 0.0777665 0.0424211 0.132488
4313 1 0.486403 0.0515557 0.142075
2683 1 0.511622 0.0823768 0.152544
4292 1 0.567306 0.0907921 0.146839
516 1 0.0256527 0.088876 0.131976
430 1 0.275893 0.091429 0.128885
5176 2 0.647319 0.0747488 0.120874
4490 1 0.852867 0.0930968 0.125301
3886 1 0.289672 0.114931 0.123309
5064 2 0.598617 0.124585 0.134951
5273 2 0.219776 0.13242 0.133675
2588 1 0.272767 0.139264 0.133697
2751 1 0.415296 0.13075 0.140807
3280 1 0.414338 0.163048 0.150906
253 1 0.639565 0.179069 0.135839
5143 2 0.385028 0.170968 0.139232
2532 1 0.529738 0.156766 0.152401
5145 2 0.612196 0.199802 0.130458
2524 1 0.158711 0.206262 0.171819
4066 1 0.238332 0.210094 0.137154
4366 1 0.643078 0.223867 0.112292
3211 1 0.903061 0.207342 0.141034
5374 2 0.13872 0.245006 0.129058
4987 1 0.227196 0.243938 0.114188
1943 1 0.499965 0.284902 0.131607
5339 2 0.566502 0.265435 0.160044
4327 1 0.814048 0.255457 0.140758
2423 1 0.2469 0.288639 0.132531
367 1 0.239277 0.262405 0.120938
4815 1 0.213442 0.266055 0.128324
2180 1 0.214024 0.288576 0.134535
1525 1 0.725611 0.309326 0.117324
53 1 0.740549 0.310943 0.13442
826 1 0.711753 0.317754 0.120125
3816 1 0.720461 0.331993 0.11745
113 1 0.0200355 0.338398 0.126846
3013 1 0.624052 0.369599 0.141373
2783 1 0.444799 0.384193 0.139653
4843 1 0.586634 0.380798 0.139479
1895 1 0.871363 0.371276 0.131403
962 1 0.94879 0.356658 0.139984
4240 1 0.341727 0.404407 0.119786
4431 1 0.439229 0.368602 0.12827
5330 2 0.967331 0.420451 0.142697
1511 1 0.189994 0.444732 0.148534
4427 1 0.267275 0.430503 0.155086
3001 1 0.275288 0.441627 0.128216
4189 1 0.415074 0.467245 0.142112
1319 1 0.613498 0.430606 0.127275
1236 1 0.788528 0.45642 0.138851
3684 1 0.304403 0.488565 0.141457
1321 1 0.425517 0.446518 0.124775
1095 1 0.535908 0.460393 0.133781
1794 1 0.335673 0.497698 0.131228
4567 1 0.761257 0.511044 0.09887
2056 1 0.104487 0.491108 0.103456
1863 1 0.525508 0.520486 0.170982
4610 1 0.571744 0.562662 0.14087
5235 2 0.896467 0.553992 0.138667
4719 1 0.953975 0.555158 0.133883
5486 2 0.118422 0.61128 0.104252
2120 1 0.674992 0.581804 0.135019
5426 2 0.0706501 0.608091 0.132423
2989 1 0.224818 0.575218 0.114359
5396 2 0.935874 0.639609 0.126439
468 1 0.0379741 0.601316 0.119646
2680 1 0.122642 0.645703 0.130353
5286 2 0.280109 0.641408 0.138377
5307 2 0.488211 0.642382 0.119397
4449 1 0.687459 0.624109 0.149023
358 1 0.0915427 0.66076 0.129574
4208 1 0.407482 0.659476 0.0945806
3564 1 0.519016 0.668214 0.135382
3968 1 0.716191 0.667921 0.122358
4316 1 0.144746 0.714113 0.126515
1783 1 0.230664 0.700437 0.155215
1936 1 0.259343 0.723221 0.14046
5354 2 0.0155563 0.713341 0.144464
1376 1 0.0875369 0.708347 0.151362
5244 2 0.592174 0.769268 0.122971
2145 1 0.621639 0.749658 0.135161
4846 1 0.67881 0.745321 0.123754
4582 1 0.76673 0.716325 0.146946
5010 2 0.118216 0.776636 0.140045
3321 1 0.186195 0.773209 0.102272
3485 1 0.163552 0.833463 0.116081
2154 1 0.197535 0.775089 0.135549
5414 2 0.354412 0.825265 0.145367
243 1 0.437622 0.787691 0.130827
415 1 0.537393 0.788525 0.0927046
5389 2 0.282941 0.814252 0.137544
2014 1 0.8206 0.843213 0.143833
5329 2 0.882985 0.81528 0.135058
3507 1 0.253758 0.849672 0.118572
2476 1 0.642475 0.828579 0.12935
4351 1 0.0216775 0.878681 0.100608
4298 1 0.803589 0.847386 0.148931
2639 1 0.862424 0.881813 0.136195
864 1 0.482849 0.879656 0.110465
4150 1 0.719426 0.885503 0.140961
5074 2 0.190653 0.903701 0.150135
588 1 0.440248 0.911659 0.135262
4332 1 0.756502 0.894582 0.13922
3393 1 0.845698 0.922968 0.130211
2219 1 0.998415 0.960593 0.140228
2345 1 0.457458 0.933638 0.135589
2050 1 0.650059 0.938651 0.148341
2292 1 0.70216 0.936852 0.157534
3514 1 0.0182432 0.981296 0.160074
4046 1 0.374471 0.995436 0.13096
4593 1 0.562104 0.977579 0.14457
20 1 0.872834 0.950891 0.154041
875 1 0.902761 0.970799 0.132312
2954 1 0.40395 0.995963 0.148047
2821 1 0.998149 0.0237892 0.165104
5386 2 0.709419 0.0604636 0.131975
2353 1 0.925679 0.0547938 0.183099
1749 1 0.610942 0.0963997 0.141974
3210 1 0.645592 0.0873996 0.168287
2217 1 0.626097 0.10283 0.166477
2955 1 0.921323 0.0863433 0.172898
4991 1 0.126539 0.100502 0.142049
3946 1 0.576535 0.109522 0.154155
733 1 0.933982 0.103662 0.176684
2264 1 0.372765 0.119669 0.164565
610 1 0.806014 0.0859539 0.163832
428 1 0.108752 0.16646 0.13594
1226 1 0.379917 0.160193 0.171188
4874 1 0.74594 0.131119 0.160153
4802 1 0.986711 0.122566 0.161386
246 1 0.0965598 0.18613 0.147083
648 1 0.20742 0.172076 0.155353
4645 1 0.676655 0.189613 0.139655
3410 1 0.878447 0.191558 0.165939
589 1 0.0461186 0.199363 0.151084
2047 1 0.060048 0.176245 0.147802
2461 1 0.499319 0.212909 0.168901
147 1 0.483865 0.204397 0.163365
676 1 0.0944111 0.226084 0.124418
484 1 0.135882 0.226225 0.166187
4657 1 0.351227 0.220573 0.148115
4430 1 0.464966 0.225663 0.131261
3065 1 0.591332 0.21184 0.155148
2660 1 0.673313 0.227856 0.135413
389 1 0.868942 0.230361 0.147682
4404 1 0.884432 0.23022 0.168336
1293 1 0.678204 0.24757 0.143801
4137 1 0.159762 0.279596 0.160395
4796 1 0.194234 0.278959 0.137887
1000 1 0.514608 0.255014 0.145735
4087 1 0.00948664 0.282181 0.160472
813 1 0.107256 0.320409 0.178192
5183 2 0.62635 0.304758 0.189506
910 1 0.670568 0.324055 0.146634
2482 1 0.829546 0.327829 0.135457
3159 1 0.826539 0.310159 0.202974
981 1 0.331307 0.343049 0.142295
4461 1 0.571309 0.346485 0.165721
3932 1 0.578021 0.327274 0.164008
3376 1 0.636673 0.340125 0.14691
1722 1 0.654638 0.341955 0.176594
2427 1 0.855288 0.363076 0.127922
878 1 0.284985 0.351319 0.148213
1874 1 0.571683 0.3729 0.151254
5075 2 0.753749 0.398902 0.163825
1785 1 0.303222 0.417722 0.121017
3681 1 0.905411 0.378483 0.166808
1283 1 0.139452 0.427244 0.132447
4574 1 0.165246 0.434365 0.125072
4294 1 0.158108 0.44708 0.167891
576 1 0.128117 0.430052 0.153555
1821 1 0.633531 0.444326 0.162988
2801 1 0.797813 0.43577 0.141488
3701 1 0.839567 0.447437 0.160556
674 1 0.174759 0.446202 0.183008
1119 1 0.644482 0.463424 0.16121
340 1 0.686512 0.479713 0.183245
769 1 0.714783 0.439698 0.164962
4246 1 0.134875 0.471831 0.172637
862 1 0.327044 0.487302 0.160776
4969 1 0.547087 0.468616 0.144762
2968 1 0.886177 0.5003 0.164289
1434 1 0.0471294 0.51901 0.16178
3502 1 0.174259 0.50394 0.167015
2898 1 0.864446 0.503823 0.167779
478 1 0.206129 0.524173 0.185358
2778 1 0.105516 0.583913 0.161292
2285 1 0.118379 0.588999 0.130187
2813 1 0.396058 0.547684 0.146871
2457 1 0.862767 0.55676 0.12974
2677 1 0.0291538 0.59598 0.135842
2229 1 0.0879216 0.586055 0.156469
1982 1 0.102311 0.584812 0.144764
3270 1 0.142296 0.57613 0.133979
955 1 0.170287 0.588212 0.157138
457 1 0.585479 0.572573 0.125718
762 1 0.930109 0.598834 0.169491
1715 1 0.0631639 0.636116 0.133744
156 1 0.756735 0.642281 0.153098
5126 2 0.206937 0.662491 0.141745
2148 1 0.307899 0.639252 0.155886
804 1 0.74093 0.664397 0.142397
1792 1 0.561189 0.708195 0.197127
4539 1 0.315735 0.728272 0.157757
4388 1 0.426261 0.713381 0.173813
3292 1 0.497017 0.737252 0.14644
1134 1 0.346267 0.760664 0.158895
5177 2 0.473865 0.75959 0.152845