ITEM: TIMESTEP
0
ITEM: NUMBER OF ATOMS
1150
ITEM: BOX BOUNDS pp pp pp
-3.0000000000000000e+01 3.0000000000000000e+01
-3.0000000000000000e+01 3.0000000000000000e+01
-5.0000000000000000e-01 5.0000000000000000e-01
ITEM: ATOMS id type xs ys zs
429 1 0.0170177 0.0160812 0.5
541 1 0.0856193 0.00310068 0.5
657 1 0.084252 0.0229787 0.5
431 1 0.0959728 0.0146339 0.5
558 1 0.0980553 0.016106 0.5
577 1 0.139823 0.0096144 0.5
635 1 0.198489 0.00859403 0.5
987 1 0.283573 0.00761341 0.5
42 1 0.322187 0.00293706 0.5
449 1 0.31237 0.00163664 0.5
1131 2 0.322367 0.0189615 0.5
764 1 0.415721 0.0223444 0.5
1006 2 0.465402 0.00935346 0.5
1038 2 0.548581 0.00675591 0.5
480 1 0.618493 0.00673033 0.5
266 1 0.686441 0.0187618 0.5
598 1 0.69013 0.00763692 0.5
794 1 0.699649 0.00305851 0.5
694 1 0.771882 0.0179767 0.5
366 1 0.806629 0.0199056 0.5
248 1 0.830072 0.0223358 0.5
160 1 0.852562 0.00824223 0.5
399 1 0.851789 0.0105369 0.5
10 1 0.894508 0.0026232 0.5
149 1 0.905932 0.00510887 0.5
692 1 0.947344 0.00933947 0.5
89 1 0.982151 0.00421545 0.5
1063 2 0.0913919 0.0239159 0.5
1118 2 0.0937724 0.0335287 0.5
597 1 0.102817 0.0439014 0.5
128 1 0.268878 0.0309256 0.5
824 1 0.294463 0.0450714 0.5
459 1 0.379547 0.0406237 0.5
16 1 0.402335 0.0384195 0.5
119 1 0.386686 0.0384773 0.5
57 1 0.450945 0.0307273 0.5
801 1 0.567088 0.0463223 0.5
688 1 0.615817 0.0353169 0.5
486 1 0.627597 0.0254055 0.5
141 1 0.705898 0.0338262 0.5
108 1 0.746596 0.0457346 0.5
789 1 0.764208 0.0417436 0.5
690 1 0.852683 0.039639 0.5
665 1 0.868926 0.0348252 0.5
827 1 0.872496 0.0451473 0.5
593 1 0.906826 0.0245924 0.5
757 1 0.964183 0.0313805 0.5
796 1 0.0248141 0.0506807 0.5
580 1 0.0646189 0.0496172 0.5
432 1 0.103948 0.0615717 0.5
46 1 0.133816 0.0534659 0.5
923 1 0.19873 0.0529643 0.5
579 1 0.278221 0.0542992 0.5
637 1 0.265845 0.0510128 0.5
276 1 0.303091 0.055015 0.5
532 1 0.288217 0.0547425 0.5
678 1 0.294821 0.0529994 0.5
847 1 0.351048 0.0670285 0.5
84 1 0.37211 0.0511508 0.5
337 1 0.375561 0.051309 0.5
774 1 0.434941 0.0481519 0.5
500 1 0.45291 0.0629284 0.5
220 1 0.594101 0.0601467 0.5
107 1 0.642712 0.06104 0.5
553 1 0.62635 0.0662712 0.5
849 1 0.726546 0.0572149 0.5
1050 2 0.767006 0.066585 0.5
388 1 0.829956 0.0637791 0.5
521 1 0.835251 0.0665025 0.5
221 1 0.967636 0.0646912 0.5
259 1 0.975906 0.0525567 0.5
845 1 0.955142 0.0632154 0.5
176 1 0.987033 0.0652624 0.5
1067 2 0.999528 0.0694226 0.5
1098 2 0.983939 0.0584126 0.5
551 1 0.0214836 0.0743199 0.5
1092 2 0.0197584 0.0788896 0.5
23 1 0.0623004 0.0831812 0.5
748 1 0.0670604 0.083866 0.5
40 1 0.0805664 0.0797313 0.5
578 1 0.11579 0.0761634 0.5
491 1 0.158629 0.0793605 0.5
115 1 0.185701 0.0723029 0.5
496 1 0.17517 0.077882 0.5
430 1 0.264181 0.0868163 0.5
187 1 0.298393 0.0888197 0.5
343 1 0.296607 0.0726039 0.5
495 1 0.315945 0.0830769 0.5
300 1 0.393115 0.0889869 0.5
384 1 0.394364 0.0807102 0.5
1025 2 0.395019 0.0868628 0.5
616 1 0.420663 0.0904182 0.5
795 1 0.477841 0.0723145 0.5
436 1 0.501522 0.0790753 0.5
747 1 0.508721 0.0798781 0.5
197 1 0.526512 0.0854156 0.5
618 1 0.704711 0.0860232 0.5
409 1 0.77498 0.0829687 0.5
1139 2 0.887552 0.081871 0.5
634 1 0.92462 0.091786 0.5
1120 2 0.917064 0.0871797 0.5
919 1 0.97323 0.0841721 0.5
422 1 0.987987 0.089143 0.5
230 1 0.00821655 0.0956203 0.5
516 1 0.0411793 0.100978 0.5
7 1 0.0927653 0.105616 0.5
126 1 0.101333 0.101388 0.5
229 1 0.128881 0.105245 0.5
413 1 0.119956 0.0992839 0.5
445 1 0.145778 0.0959011 0.5
302 1 0.167258 0.108252 0.5
811 1 0.189868 0.117063 0.5
1062 2 0.181835 0.105776 0.5
1112 2 0.173505 0.100013 0.5
372 1 0.230921 0.0965314 0.5
641 1 0.263468 0.114264 0.5
356 1 0.327548 0.100178 0.5
497 1 0.368246 0.110193 0.5
902 1 0.366521 0.113682 0.5
1026 2 0.432564 0.0961882 0.5
1121 2 0.507474 0.112119 0.5
36 1 0.554299 0.10377 0.5
1064 2 0.598864 0.103595 0.5
1076 2 0.596722 0.106718 0.5
74 1 0.650152 0.112396 0.5
1149 2 0.667704 0.10771 0.5
255 1 0.733213 0.103368 0.5
201 1 0.768733 0.0958956 0.5
706 1 0.799912 0.118816 0.5
921 1 0.813536 0.103048 0.5
342 1 0.888683 0.097796 0.5
463 1 0.924859 0.101697 0.5
733 1 0.94015 0.100622 0.5
116 1 0.00322112 0.13736 0.5
142 1 0.040705 0.128842 0.5
768 1 0.0379091 0.138719 0.5
866 1 0.0259496 0.134586 0.5
489 1 0.108653 0.132359 0.5
856 1 0.106273 0.127168 0.5
1107 2 0.0991329 0.127013 0.5
555 1 0.169342 0.131755 0.5
652 1 0.225747 0.134432 0.5
672 1 0.289886 0.121629 0.5
174 1 0.368188 0.141155 0.5
272 1 0.381456 0.126421 0.5
954 1 0.391393 0.136476 0.5
1141 2 0.387286 0.123584 0.5
412 1 0.424771 0.128817 0.5
620 1 0.406326 0.127826 0.5
770 1 0.417274 0.122801 0.5
1097 2 0.447321 0.13176 0.5
319 1 0.494087 0.12738 0.5
237 1 0.533 0.13392 0.5
899 1 0.569652 0.13515 0.5
1088 2 0.608861 0.135226 0.5
398 1 0.62338 0.140672 0.5
995 1 0.625581 0.131701 0.5
1096 2 0.656283 0.140795 0.5
251 1 0.813657 0.129006 0.5
610 1 0.832875 0.123649 0.5
148 1 0.937713 0.138289 0.5
273 1 0.934975 0.131424 0.5
888 1 0.952408 0.120565 0.5
181 1 0.976684 0.119948 0.5
186 1 0.0546895 0.166169 0.5
443 1 0.051297 0.147876 0.5
1009 2 0.0741451 0.15705 0.5
428 1 0.110558 0.143461 0.5
732 1 0.125612 0.161402 0.5
949 1 0.207839 0.147172 0.5
777 1 0.219502 0.164906 0.5
214 1 0.257581 0.165195 0.5
143 1 0.266684 0.163365 0.5
1029 2 0.399247 0.151329 0.5
8 1 0.438398 0.162966 0.5
296 1 0.578102 0.162926 0.5
253 1 0.63058 0.163451 0.5
943 1 0.648371 0.165851 0.5
54 1 0.757253 0.154488 0.5
857 1 0.74351 0.164655 0.5
393 1 0.802949 0.160369 0.5
1058 2 0.799974 0.164262 0.5
663 1 0.852749 0.153261 0.5
1095 2 0.916473 0.157685 0.5
1066 2 0.989894 0.150671 0.5
965 1 0.0106018 0.184772 0.5
246 1 0.083607 0.183207 0.5
437 1 0.108834 0.169843 0.5
1093 2 0.148044 0.175414 0.5
100 1 0.169225 0.169692 0.5
525 1 0.241755 0.16928 0.5
881 1 0.249252 0.17359 0.5
714 1 0.282928 0.177437 0.5
1073 2 0.312439 0.169855 0.5
451 1 0.362479 0.188616 0.5
684 1 0.385981 0.188321 0.5
1143 2 0.396274 0.181479 0.5
465 1 0.436496 0.180054 0.5
1021 2 0.437447 0.169671 0.5
1033 2 0.620586 0.181455 0.5
1145 2 0.619634 0.187549 0.5
41 1 0.644682 0.176443 0.5
573 1 0.687463 0.188877 0.5
262 1 0.71971 0.169495 0.5
503 1 0.753447 0.183131 0.5
386 1 0.898684 0.189925 0.5
49 1 0.908383 0.189436 0.5
203 1 0.959848 0.173596 0.5
177 1 0.0098288 0.192632 0.5
790 1 0.0443387 0.200177 0.5
589 1 0.0526099 0.214206 0.5
738 1 0.0522524 0.206521 0.5
96 1 0.108836 0.212152 0.5
648 1 0.172202 0.190883 0.5
121 1 0.275017 0.206758 0.5
162 1 0.338859 0.202844 0.5
172 1 0.369501 0.198916 0.5
798 1 0.378663 0.192796 0.5
132 1 0.389909 0.198518 0.5
673 1 0.403415 0.200182 0.5
99 1 0.433819 0.194319 0.5
137 1 0.432689 0.201967 0.5
147 1 0.477254 0.207066 0.5
252 1 0.618505 0.207665 0.5
895 1 0.679312 0.198168 0.5
848 1 0.700553 0.202165 0.5
31 1 0.732504 0.192949 0.5
900 1 0.71638 0.203176 0.5
131 1 0.74018 0.203493 0.5
213 1 0.741667 0.204712 0.5
1115 2 0.799797 0.195548 0.5
279 1 0.812471 0.204439 0.5
941 1 0.840376 0.202568 0.5
196 1 0.895472 0.20435 0.5
21 1 0.972999 0.200148 0.5
28 1 0.961754 0.205344 0.5
1002 2 0.000549172 0.229935 0.5
130 1 0.0599295 0.235606 0.5
676 1 0.0734354 0.228426 0.5
594 1 0.0999118 0.217485 0.5
854 1 0.11086 0.228112 0.5
484 1 0.139538 0.22325 0.5
1111 2 0.152629 0.229111 0.5
680 1 0.169824 0.224667 0.5
833 1 0.220993 0.224635 0.5
917 1 0.254847 0.219281 0.5
934 1 0.283466 0.217644 0.5
946 1 0.303517 0.215431 0.5
560 1 0.333683 0.216225 0.5
731 1 0.339158 0.226731 0.5
1084 2 0.344156 0.236544 0.5
267 1 0.403833 0.220436 0.5
1019 2 0.418351 0.224277 0.5
1132 2 0.411211 0.228779 0.5
287 1 0.486716 0.228528 0.5
311 1 0.542525 0.223415 0.5
510 1 0.574358 0.227013 0.5
1017 2 0.612913 0.223825 0.5
5 1 0.623861 0.234069 0.5
365 1 0.66313 0.225246 0.5
600 1 0.665688 0.221965 0.5
756 1 0.685859 0.223881 0.5
758 1 0.688238 0.21435 0.5
215 1 0.69633 0.214358 0.5
280 1 0.699127 0.235561 0.5
1124 2 0.693236 0.220806 0.5
861 1 0.731316 0.224382 0.5
1018 2 0.7356 0.226784 0.5
784 1 0.766956 0.225728 0.5
1125 2 0.774274 0.223507 0.5
330 1 0.790459 0.236187 0.5
743 1 0.826157 0.225376 0.5
194 1 0.844661 0.222062 0.5
915 1 0.845851 0.220103 0.5
245 1 0.872448 0.226329 0.5
389 1 0.881789 0.221285 0.5
58 1 0.91969 0.232042 0.5
308 1 0.924986 0.234617 0.5
1047 2 0.94105 0.223632 0.5
697 1 0.971275 0.226335 0.5
631 1 0.019292 0.240796 0.5
1077 2 0.0527904 0.247652 0.5
602 1 0.115681 0.244449 0.5
154 1 0.161317 0.25271 0.5
440 1 0.157449 0.244523 0.5
964 1 0.153224 0.243756 0.5
111 1 0.169527 0.242103 0.5
571 1 0.195648 0.253318 0.5
232 1 0.231228 0.254312 0.5
367 1 0.225933 0.261685 0.5
563 1 0.245388 0.239018 0.5
66 1 0.346953 0.239801 0.5
310 1 0.383546 0.249311 0.5
321 1 0.381998 0.239531 0.5
903 1 0.407048 0.255833 0.5
325 1 0.440307 0.244647 0.5
728 1 0.546098 0.261599 0.5
123 1 0.566089 0.256757 0.5
327 1 0.574002 0.258428 0.5
740 1 0.617674 0.250305 0.5
60 1 0.643377 0.240429 0.5
285 1 0.663607 0.247314 0.5
173 1 0.691096 0.248934 0.5
75 1 0.750536 0.252835 0.5
161 1 0.821637 0.249934 0.5
1037 2 0.810331 0.241302 0.5
504 1 0.837583 0.256874 0.5
153 1 0.895594 0.250727 0.5
120 1 0.909338 0.250594 0.5
345 1 0.920822 0.259081 0.5
1053 2 0.91874 0.255981 0.5
650 1 0.966577 0.25344 0.5
55 1 0.999063 0.254143 0.5
958 1 0.110864 0.285707 0.5
927 1 0.122941 0.270795 0.5
304 1 0.144539 0.262709 0.5
329 1 0.18839 0.270704 0.5
76 1 0.230931 0.263742 0.5
531 1 0.253899 0.276333 0.5
34 1 0.262943 0.279608 0.5
951 1 0.391104 0.277561 0.5
190 1 0.429421 0.275999 0.5
223 1 0.541993 0.272013 0.5
1000 1 0.534972 0.273883 0.5
893 1 0.563532 0.279541 0.5
326 1 0.580726 0.264775 0.5
501 1 0.655101 0.279692 0.5
425 1 0.678066 0.263131 0.5
668 1 0.693239 0.266746 0.5
716 1 0.753334 0.285033 0.5
282 1 0.777371 0.272322 0.5
168 1 0.794328 0.269817 0.5
649 1 0.811404 0.266284 0.5
374 1 0.938018 0.274853 0.5
452 1 0.060112 0.30222 0.5
633 1 0.125204 0.295375 0.5
392 1 0.151978 0.298835 0.5
175 1 0.207075 0.303622 0.5
391 1 0.2088 0.297104 0.5
953 1 0.223198 0.286594 0.5
838 1 0.255031 0.307363 0.5
897 1 0.314469 0.286705 0.5
18 1 0.342673 0.29702 0.5
22 1 0.358797 0.301374 0.5
50 1 0.366888 0.285776 0.5
97 1 0.380752 0.299157 0.5
874 1 0.375278 0.298214 0.5
986 1 0.432279 0.306114 0.5
1082 2 0.455424 0.30452 0.5
942 1 0.494871 0.302173 0.5
884 1 0.504986 0.297785 0.5
858 1 0.571386 0.289565 0.5
763 1 0.635764 0.286132 0.5
679 1 0.661944 0.292697 0.5
166 1 0.669085 0.303941 0.5
204 1 0.730487 0.300739 0.5
53 1 0.738341 0.305237 0.5
534 1 0.832766 0.297788 0.5
324 1 0.860017 0.306544 0.5
408 1 0.862456 0.292558 0.5
707 1 0.861385 0.294093 0.5
868 1 0.867157 0.302464 0.5
470 1 0.959856 0.294396 0.5
562 1 0.959023 0.293256 0.5
896 1 0.972588 0.287657 0.5
722 1 0.0215572 0.311614 0.5
725 1 0.0607676 0.320895 0.5
164 1 0.0971806 0.314671 0.5
813 1 0.109556 0.30988 0.5
83 1 0.156443 0.332115 0.5
188 1 0.153526 0.319227 0.5
488 1 0.154716 0.319647 0.5
546 1 0.240634 0.33196 0.5
659 1 0.309831 0.321221 0.5
990 1 0.343387 0.31254 0.5
537 1 0.369865 0.315709 0.5
960 1 0.426925 0.328499 0.5
1024 2 0.475714 0.330859 0.5
905 1 0.572399 0.316097 0.5
753 1 0.640943 0.329305 0.5
853 1 0.640526 0.322662 0.5
936 1 0.633625 0.333044 0.5
910 1 0.647726 0.329514 0.5
289 1 0.670156 0.319515 0.5
826 1 0.71252 0.330941 0.5
241 1 0.7647 0.309888 0.5
817 1 0.817595 0.317926 0.5
469 1 0.892564 0.32228 0.5
617 1 0.893516 0.329804 0.5
396 1 0.972233 0.317029 0.5
65 1 0.0454181 0.34178 0.5
113 1 0.0576162 0.355455 0.5
664 1 0.0647556 0.346797 0.5
274 1 0.0889122 0.347654 0.5
456 1 0.0727282 0.342418 0.5
11 1 0.191191 0.349415 0.5
461 1 0.236886 0.346381 0.5
570 1 0.240873 0.350472 0.5
901 1 0.251404 0.341802 0.5
244 1 0.283474 0.345551 0.5
981 1 0.333037 0.354742 0.5
1128 2 0.315782 0.355047 0.5
829 1 0.37052 0.33519 0.5
699 1 0.513616 0.338564 0.5
505 1 0.530217 0.350843 0.5
582 1 0.587336 0.349896 0.5
435 1 0.608458 0.35507 0.5
1071 2 0.598938 0.350304 0.5
416 1 0.675513 0.342046 0.5
572 1 0.680749 0.350609 0.5
502 1 0.731502 0.353576 0.5
709 1 0.751136 0.335163 0.5
460 1 0.773151 0.350977 0.5
62 1 0.80296 0.353547 0.5
373 1 0.787728 0.338139 0.5
656 1 0.924159 0.340057 0.5
642 1 0.986633 0.343671 0.5
793 1 0.0044255 0.379325 0.5
1081 2 0.0567249 0.375988 0.5
184 1 0.115272 0.379517 0.5
846 1 0.102361 0.375633 0.5
974 1 0.0956969 0.377776 0.5
1140 2 0.155137 0.380816 0.5
865 1 0.175305 0.358509 0.5
1099 2 0.195417 0.37399 0.5
400 1 0.237959 0.374141 0.5
80 1 0.278121 0.373672 0.5
878 1 0.299123 0.360395 0.5
932 1 0.350411 0.363083 0.5
15 1 0.378792 0.359464 0.5
788 1 0.45281 0.378169 0.5
972 1 0.454713 0.360353 0.5
71 1 0.497433 0.363287 0.5
988 1 0.507906 0.378895 0.5
646 1 0.549554 0.360612 0.5
127 1 0.617979 0.375599 0.5
134 1 0.636244 0.359885 0.5
228 1 0.664923 0.361769 0.5
1137 2 0.727576 0.378105 0.5
1042 2 0.826165 0.361649 0.5
295 1 0.878227 0.369298 0.5
466 1 0.893043 0.368484 0.5
317 1 0.921662 0.37238 0.5
615 1 0.933383 0.361797 0.5
622 1 0.972653 0.379294 0.5
675 1 0.965037 0.374783 0.5
962 1 0.956468 0.363547 0.5
78 1 0.00103428 0.383078 0.5
17 1 0.0397686 0.390194 0.5
797 1 0.0257275 0.402472 0.5
322 1 0.0837978 0.390187 0.5
88 1 0.118606 0.403713 0.5
568 1 0.139132 0.394868 0.5
908 1 0.158291 0.39906 0.5
247 1 0.203569 0.386308 0.5
819 1 0.2545 0.386273 0.5
693 1 0.284905 0.404702 0.5
894 1 0.273898 0.401863 0.5
77 1 0.295436 0.398207 0.5
1094 2 0.312393 0.384424 0.5
1101 2 0.311739 0.395779 0.5
146 1 0.350651 0.398978 0.5
269 1 0.355173 0.395527 0.5
533 1 0.374986 0.390329 0.5
948 1 0.451502 0.399893 0.5
163 1 0.468399 0.386018 0.5
945 1 0.463937 0.39082 0.5
35 1 0.519569 0.397952 0.5
535 1 0.590908 0.384825 0.5
1075 2 0.743345 0.397344 0.5
33 1 0.80207 0.394014 0.5
830 1 0.85794 0.397188 0.5
930 1 0.873766 0.384056 0.5
257 1 0.898518 0.396397 0.5
352 1 0.984791 0.387571 0.5
12 1 0.0231692 0.405158 0.5
786 1 0.0155536 0.409084 0.5
842 1 0.00912855 0.423525 0.5
70 1 0.0824905 0.417467 0.5
799 1 0.113728 0.418598 0.5
212 1 0.148178 0.420118 0.5
513 1 0.21196 0.405953 0.5
982 1 0.20119 0.405363 0.5
687 1 0.253313 0.423881 0.5
475 1 0.30942 0.424616 0.5
316 1 0.356544 0.428196 0.5
335 1 0.401227 0.418305 0.5
592 1 0.41985 0.421257 0.5
966 1 0.426454 0.418982 0.5
462 1 0.460606 0.412628 0.5
1108 2 0.459358 0.421899 0.5
1110 2 0.462154 0.424529 0.5
539 1 0.547773 0.425493 0.5
360 1 0.603226 0.427565 0.5
519 1 0.606677 0.418801 0.5
256 1 0.635475 0.427546 0.5
956 1 0.625479 0.41908 0.5
1086 2 0.638033 0.419991 0.5
101 1 0.645708 0.407213 0.5
72 1 0.68938 0.417451 0.5
271 1 0.703898 0.416009 0.5
685 1 0.711633 0.409044 0.5
619 1 0.729126 0.424497 0.5
210 1 0.75828 0.414348 0.5
202 1 0.771727 0.414167 0.5
818 1 0.770002 0.426563 0.5
1085 2 0.775118 0.407494 0.5
1100 2 0.768275 0.405118 0.5
565 1 0.810163 0.412625 0.5
719 1 0.824978 0.410669 0.5
924 1 0.844256 0.407008 0.5
586 1 0.911847 0.407371 0.5
320 1 0.983067 0.413523 0.5
312 1 0.0238255 0.435651 0.5
727 1 0.0546456 0.429301 0.5
383 1 0.082968 0.442556 0.5
434 1 0.129258 0.441169 0.5
587 1 0.121047 0.435614 0.5
660 1 0.128842 0.4465 0.5
891 1 0.125748 0.446083 0.5
576 1 0.15401 0.446074 0.5
686 1 0.164303 0.44792 0.5
704 1 0.155377 0.42946 0.5
752 1 0.152939 0.44332 0.5
103 1 0.168409 0.441787 0.5
980 1 0.195242 0.432903 0.5
91 1 0.217673 0.433501 0.5
761 1 0.238022 0.440946 0.5
834 1 0.25361 0.42915 0.5
1087 2 0.258431 0.451739 0.5
712 1 0.27515 0.440967 0.5
169 1 0.2905 0.440548 0.5
200 1 0.308053 0.447836 0.5
564 1 0.314418 0.430516 0.5
1045 2 0.419316 0.441946 0.5
467 1 0.479946 0.449875 0.5
309 1 0.504222 0.451989 0.5
613 1 0.504161 0.42956 0.5
518 1 0.533019 0.443179 0.5
379 1 0.568598 0.433115 0.5
739 1 0.598051 0.442793 0.5
338 1 0.620958 0.441736 0.5
920 1 0.634464 0.436944 0.5
284 1 0.668438 0.432848 0.5
494 1 0.690393 0.435632 0.5
362 1 0.697295 0.444667 0.5
636 1 0.726748 0.447535 0.5
192 1 0.739778 0.450972 0.5
1 1 0.8226 0.441064 0.5
1123 2 0.957841 0.433429 0.5
944 1 0.991875 0.440798 0.5
1054 2 0.0284086 0.46399 0.5
183 1 0.0482213 0.455795 0.5
104 1 0.0854688 0.474111 0.5
209 1 0.141814 0.471029 0.5
674 1 0.17198 0.465233 0.5
117 1 0.20643 0.474854 0.5
749 1 0.236239 0.464488 0.5
179 1 0.272236 0.464738 0.5
1134 2 0.306031 0.469724 0.5
346 1 0.340897 0.457062 0.5
417 1 0.343872 0.45493 0.5
971 1 0.399147 0.456583 0.5
315 1 0.412475 0.461696 0.5
524 1 0.623399 0.460606 0.5
975 1 0.641129 0.452512 0.5
340 1 0.670522 0.455475 0.5
536 1 0.677007 0.459025 0.5
599 1 0.692359 0.470087 0.5
773 1 0.703901 0.459367 0.5
852 1 0.711041 0.471629 0.5
769 1 0.730616 0.455237 0.5
1036 2 0.733531 0.463773 0.5
448 1 0.821828 0.467879 0.5
520 1 0.852649 0.474661 0.5
336 1 0.881863 0.470178 0.5
931 1 0.914409 0.466654 0.5
800 1 0.940707 0.464552 0.5
850 1 0.0851123 0.483065 0.5
983 1 0.0864814 0.492606 0.5
401 1 0.118491 0.480109 0.5
669 1 0.177515 0.499781 0.5
38 1 0.204229 0.479098 0.5
155 1 0.203277 0.479127 0.5
305 1 0.206967 0.486425 0.5
59 1 0.239869 0.482087 0.5
140 1 0.248795 0.491296 0.5
1048 2 0.277057 0.497799 0.5
862 1 0.34429 0.476835 0.5
294 1 0.410869 0.480804 0.5
1051 2 0.445617 0.480291 0.5
1078 2 0.444725 0.496292 0.5
772 1 0.457695 0.476587 0.5
387 1 0.523324 0.499611 0.5
724 1 0.540994 0.490782 0.5
191 1 0.645475 0.494004 0.5
1011 2 0.690336 0.48116 0.5
601 1 0.727048 0.49822 0.5
658 1 0.75418 0.495826 0.5
370 1 0.883886 0.477216 0.5
476 1 0.963318 0.491599 0.5
935 1 0.0146669 0.507223 0.5
4 1 0.0672042 0.50025 0.5
526 1 0.0705367 0.511007 0.5
705 1 0.0653005 0.506029 0.5
357 1 0.0801754 0.508594 0.5
492 1 0.108676 0.519373 0.5
208 1 0.129083 0.502132 0.5
439 1 0.189476 0.518315 0.5
1034 2 0.201137 0.511779 0.5
677 1 0.218153 0.500546 0.5
808 1 0.351551 0.517433 0.5
916 1 0.353098 0.521046 0.5
87 1 0.391178 0.521891 0.5
760 1 0.413251 0.513223 0.5
73 1 0.477807 0.506664 0.5
870 1 0.535938 0.505131 0.5
1040 2 0.559797 0.513555 0.5
397 1 0.592641 0.522163 0.5
92 1 0.597758 0.512219 0.5
363 1 0.621201 0.521857 0.5
1055 2 0.628815 0.500815 0.5
350 1 0.66386 0.501845 0.5
52 1 0.671477 0.5161 0.5
182 1 0.674749 0.504961 0.5
239 1 0.680401 0.506651 0.5
661 1 0.708247 0.514016 0.5
1004 2 0.888886 0.503597 0.5
1148 2 0.032935 0.539172 0.5
1003 2 0.0694668 0.529282 0.5
426 1 0.094457 0.53837 0.5
556 1 0.144377 0.536636 0.5
347 1 0.174423 0.523916 0.5
354 1 0.201258 0.546142 0.5
478 1 0.216846 0.532585 0.5
741 1 0.233505 0.525782 0.5
455 1 0.249988 0.54564 0.5
277 1 0.264802 0.532953 0.5
226 1 0.294373 0.524541 0.5
453 1 0.329181 0.543334 0.5
464 1 0.385764 0.531536 0.5
776 1 0.391001 0.546298 0.5
395 1 0.450619 0.545327 0.5
385 1 0.468409 0.543515 0.5
851 1 0.459126 0.524719 0.5
918 1 0.533559 0.524131 0.5
63 1 0.67713 0.52532 0.5
828 1 0.779231 0.535959 0.5
265 1 0.929407 0.546549 0.5
604 1 0.980814 0.53946 0.5
938 1 0.00830343 0.555684 0.5
863 1 0.042991 0.549107 0.5
806 1 0.162227 0.548879 0.5
691 1 0.227855 0.560876 0.5
1007 2 0.33775 0.566608 0.5
25 1 0.358098 0.556788 0.5
292 1 0.442171 0.560564 0.5
1142 2 0.461151 0.562491 0.5
471 1 0.498635 0.565525 0.5
746 1 0.510297 0.569242 0.5
288 1 0.663269 0.566199 0.5
961 1 0.68576 0.569676 0.5
44 1 0.739487 0.553621 0.5
306 1 0.742878 0.549781 0.5
236 1 0.84135 0.56724 0.5
515 1 0.880024 0.562914 0.5
566 1 0.872586 0.548225 0.5
607 1 0.949519 0.566561 0.5
423 1 0.969808 0.563035 0.5
785 1 0.965405 0.568767 0.5
509 1 0.0318662 0.575729 0.5
530 1 0.0447188 0.588459 0.5
955 1 0.169845 0.591192 0.5
341 1 0.211375 0.572465 0.5
450 1 0.260164 0.579733 0.5
715 1 0.329421 0.574439 0.5
490 1 0.352388 0.592493 0.5
507 1 0.431105 0.573786 0.5
778 1 0.480549 0.594086 0.5
225 1 0.578543 0.578904 0.5
457 1 0.592466 0.582743 0.5
780 1 0.593597 0.577943 0.5
529 1 0.660117 0.582595 0.5
231 1 0.683679 0.592528 0.5
643 1 0.69052 0.571981 0.5
671 1 0.769298 0.588601 0.5
574 1 0.80809 0.57186 0.5
314 1 0.879252 0.58958 0.5
51 1 0.92108 0.592072 0.5
843 1 0.929171 0.582649 0.5
361 1 0.962253 0.584545 0.5
742 1 0.991883 0.574644 0.5
1032 2 0.977306 0.581542 0.5
751 1 0.00675961 0.608688 0.5
468 1 0.0295483 0.617965 0.5
43 1 0.055013 0.60339 0.5
157 1 0.14569 0.618815 0.5
766 1 0.14676 0.598278 0.5
1061 2 0.165027 0.612203 0.5
1109 2 0.159255 0.598071 0.5
702 1 0.188767 0.60032 0.5
1027 2 0.231785 0.610306 0.5
1102 2 0.241424 0.605357 0.5
767 1 0.306813 0.602364 0.5
349 1 0.318831 0.599922 0.5
837 1 0.396775 0.599616 0.5
552 1 0.458714 0.612869 0.5
906 1 0.462582 0.615514 0.5
291 1 0.478051 0.601193 0.5
334 1 0.496734 0.614232 0.5
323 1 0.574024 0.616265 0.5
418 1 0.636259 0.605594 0.5
275 1 0.6528 0.616888 0.5
825 1 0.72515 0.601625 0.5
199 1 0.769597 0.616832 0.5
109 1 0.80827 0.600587 0.5
713 1 0.841412 0.618259 0.5
406 1 0.974749 0.598425 0.5
420 1 0.967728 0.61065 0.5
344 1 0.996287 0.603715 0.5
978 1 0.0681645 0.640321 0.5
48 1 0.100651 0.63902 0.5
268 1 0.145989 0.633569 0.5
474 1 0.179724 0.62346 0.5
144 1 0.231845 0.620988 0.5
821 1 0.253742 0.637618 0.5
611 1 0.290154 0.626002 0.5
1136 2 0.434916 0.636274 0.5
976 1 0.4583 0.642814 0.5
198 1 0.50691 0.629236 0.5
414 1 0.521904 0.642028 0.5
139 1 0.541776 0.625465 0.5
814 1 0.641615 0.62033 0.5
135 1 0.666545 0.626288 0.5
297 1 0.648458 0.629585 0.5
879 1 0.675411 0.63578 0.5
877 1 0.735922 0.635298 0.5
991 1 0.726759 0.639994 0.5
156 1 0.759424 0.637719 0.5
411 1 0.752581 0.636188 0.5
371 1 0.798694 0.642091 0.5
293 1 0.847006 0.631745 0.5
37 1 0.86914 0.641177 0.5
359 1 0.904958 0.637494 0.5
762 1 0.924354 0.620941 0.5
82 1 0.0292528 0.651562 0.5
94 1 0.0409147 0.65279 0.5
698 1 0.0300265 0.655583 0.5
394 1 0.0709623 0.664113 0.5
47 1 0.085004 0.661869 0.5
178 1 0.0781605 0.643433 0.5
358 1 0.0820876 0.645928 0.5
1035 2 0.0932144 0.655143 0.5
86 1 0.124512 0.665007 0.5
382 1 0.187461 0.660463 0.5
1126 2 0.177643 0.650452 0.5
559 1 0.25053 0.655416 0.5
353 1 0.378928 0.644826 0.5
820 1 0.375716 0.663508 0.5
922 1 0.357985 0.658564 0.5
947 1 0.374526 0.666501 0.5
859 1 0.393566 0.65941 0.5
926 1 0.396242 0.646398 0.5
807 1 0.469188 0.642964 0.5
549 1 0.513515 0.643913 0.5
969 1 0.566886 0.649866 0.5
840 1 0.575217 0.66657 0.5
479 1 0.626266 0.659301 0.5
791 1 0.654052 0.647501 0.5
29 1 0.681957 0.643375 0.5
517 1 0.738005 0.653996 0.5
136 1 0.744074 0.644923 0.5
1008 2 0.76353 0.64673 0.5
654 1 0.798991 0.644221 0.5
804 1 0.791732 0.644562 0.5
1147 2 0.851708 0.653804 0.5
614 1 0.859859 0.654727 0.5
779 1 0.912754 0.655658 0.5
567 1 0.0481746 0.669745 0.5
1135 2 0.0628712 0.676001 0.5
977 1 0.104878 0.679882 0.5
1119 2 0.12475 0.668758 0.5
911 1 0.152001 0.678687 0.5
79 1 0.180679 0.680164 0.5
629 1 0.185737 0.687299 0.5
595 1 0.232919 0.677705 0.5
369 1 0.291705 0.684923 0.5
591 1 0.287243 0.685649 0.5
85 1 0.340494 0.690469 0.5
263 1 0.376788 0.683285 0.5
737 1 0.398624 0.677518 0.5
240 1 0.437775 0.676719 0.5
368 1 0.450805 0.674395 0.5
227 1 0.456338 0.678045 0.5
860 1 0.502272 0.687982 0.5
402 1 0.528035 0.681541 0.5
547 1 0.598124 0.67388 0.5
170 1 0.664228 0.684771 0.5
711 1 0.686183 0.67209 0.5
835 1 0.687968 0.682037 0.5
1023 2 0.731818 0.670764 0.5
1070 2 0.76252 0.66815 0.5
45 1 0.888003 0.672494 0.5
717 1 0.901212 0.67498 0.5
512 1 0.937863 0.671145 0.5
207 1 0.988021 0.673342 0.5
892 1 0.00141047 0.705783 0.5
286 1 0.0399059 0.698378 0.5
205 1 0.0949428 0.703934 0.5
1014 2 0.0957758 0.703375 0.5
628 1 0.12493 0.695481 0.5
318 1 0.174017 0.69861 0.5
1106 2 0.172886 0.698737 0.5
447 1 0.237026 0.695709 0.5
233 1 0.340793 0.69998 0.5
545 1 0.394817 0.694781 0.5
624 1 0.386428 0.696916 0.5
883 1 0.407372 0.700717 0.5
653 1 0.431767 0.713332 0.5
803 1 0.430993 0.69095 0.5
701 1 0.473058 0.692113 0.5
937 1 0.462409 0.700309 0.5
381 1 0.510603 0.71184 0.5
695 1 0.583727 0.696536 0.5
380 1 0.5964 0.695535 0.5
27 1 0.643226 0.702314 0.5
150 1 0.748956 0.711762 0.5
528 1 0.749909 0.713924 0.5
1013 2 0.788642 0.704667 0.5
405 1 0.844749 0.694625 0.5
605 1 0.857958 0.701266 0.5
1116 2 0.898298 0.693374 0.5
952 1 0.917219 0.701938 0.5
1028 2 0.945184 0.706937 0.5
1122 2 0.00307719 0.718378 0.5
1144 2 0.103214 0.721665 0.5
56 1 0.163486 0.716883 0.5
985 1 0.156764 0.737389 0.5
67 1 0.216917 0.730544 0.5
1138 2 0.225902 0.72928 0.5
979 1 0.300454 0.724331 0.5
583 1 0.324431 0.71861 0.5
992 1 0.356323 0.716407 0.5
114 1 0.396367 0.732118 0.5
454 1 0.386847 0.737534 0.5
970 1 0.50162 0.721807 0.5
542 1 0.592237 0.735135 0.5
1065 2 0.61788 0.717176 0.5
95 1 0.652688 0.723666 0.5
623 1 0.65602 0.724406 0.5
885 1 0.66792 0.726044 0.5
730 1 0.747291 0.717637 0.5
963 1 0.817738 0.723133 0.5
9 1 0.867301 0.734297 0.5
64 1 0.0202146 0.747589 0.5
242 1 0.0201557 0.756097 0.5
645 1 0.0263433 0.752681 0.5
816 1 0.0425869 0.758613 0.5
912 1 0.107262 0.744522 0.5
219 1 0.173068 0.747068 0.5
333 1 0.21192 0.740321 0.5
855 1 0.193952 0.751089 0.5
444 1 0.239231 0.748504 0.5
993 1 0.25232 0.750264 0.5
759 1 0.279451 0.738321 0.5
683 1 0.301586 0.748004 0.5
700 1 0.292541 0.738891 0.5
708 1 0.347816 0.742932 0.5
771 1 0.378815 0.749092 0.5
603 1 0.386193 0.742823 0.5
929 1 0.393571 0.752779 0.5
540 1 0.464613 0.75276 0.5
973 1 0.467172 0.753094 0.5
710 1 0.542854 0.754842 0.5
283 1 0.547793 0.751101 0.5
940 1 0.600152 0.756779 0.5
477 1 0.654296 0.751164 0.5
543 1 0.687972 0.746268 0.5
832 1 0.728253 0.742087 0.5
682 1 0.796082 0.745833 0.5
195 1 0.810956 0.741504 0.5
887 1 0.820953 0.751018 0.5
967 1 0.812622 0.738751 0.5
506 1 0.8651 0.73995 0.5
270 1 0.949471 0.756085 0.5
775 1 0.968868 0.758598 0.5
1089 2 0.0154566 0.778663 0.5
1015 2 0.048181 0.777256 0.5
348 1 0.0951258 0.77958 0.5
538 1 0.0979213 0.76334 0.5
1010 2 0.114819 0.768319 0.5
458 1 0.132075 0.782774 0.5
165 1 0.188658 0.773755 0.5
836 1 0.192526 0.777723 0.5
1146 2 0.209542 0.771382 0.5
481 1 0.219538 0.779964 0.5
550 1 0.316521 0.767176 0.5
815 1 0.329491 0.762693 0.5
810 1 0.623596 0.775903 0.5
1059 2 0.620324 0.778715 0.5
745 1 0.701659 0.784407 0.5
805 1 0.706656 0.770139 0.5
1022 2 0.812921 0.76861 0.5
744 1 0.943522 0.772457 0.5
612 1 0.979341 0.779809 0.5
666 1 0.0497883 0.791558 0.5
527 1 0.0762653 0.791002 0.5
754 1 0.0872139 0.803868 0.5
260 1 0.181282 0.808394 0.5
224 1 0.19217 0.805914 0.5
809 1 0.213114 0.802357 0.5
718 1 0.234593 0.808251 0.5
351 1 0.427131 0.789843 0.5
243 1 0.42957 0.791167 0.5
670 1 0.468067 0.802349 0.5
721 1 0.461224 0.789611 0.5
483 1 0.477289 0.797957 0.5
415 1 0.545594 0.806279 0.5
1043 2 0.543392 0.788554 0.5
180 1 0.587125 0.807502 0.5
928 1 0.599024 0.794183 0.5
222 1 0.712846 0.807576 0.5
514 1 0.729387 0.807952 0.5
301 1 0.740929 0.791323 0.5
216 1 0.815243 0.795575 0.5
281 1 0.860047 0.803377 0.5
355 1 0.87385 0.794485 0.5
376 1 0.947331 0.799053 0.5
787 1 0.992193 0.785934 0.5
871 1 0.00605845 0.824453 0.5
61 1 0.0345582 0.819078 0.5
112 1 0.055918 0.813415 0.5
90 1 0.0855494 0.829388 0.5
655 1 0.305339 0.824549 0.5
290 1 0.327115 0.823885 0.5
904 1 0.326282 0.814504 0.5
39 1 0.345144 0.831969 0.5
703 1 0.37281 0.82363 0.5
446 1 0.39304 0.821546 0.5
872 1 0.418862 0.811831 0.5
898 1 0.521201 0.819757 0.5
254 1 0.54976 0.81413 0.5
984 1 0.61759 0.829874 0.5
1104 2 0.611521 0.832443 0.5
6 1 0.671972 0.826311 0.5
886 1 0.765087 0.810149 0.5
410 1 0.790077 0.827008 0.5
561 1 0.800964 0.810347 0.5
30 1 0.814828 0.815087 0.5
118 1 0.817506 0.81783 0.5
873 1 0.823456 0.827269 0.5
313 1 0.928947 0.811654 0.5
424 1 0.933351 0.825652 0.5
1057 2 0.929662 0.820944 0.5
1130 2 0.983627 0.815363 0.5
13 1 0.03224 0.857071 0.5
493 1 0.035571 0.841517 0.5
880 1 0.0495535 0.846419 0.5
1005 2 0.0646665 0.850513 0.5
1020 2 0.0832297 0.842165 0.5
651 1 0.120595 0.837344 0.5
261 1 0.215258 0.847797 0.5
750 1 0.242152 0.8481 0.5
258 1 0.27083 0.838823 0.5
909 1 0.32188 0.840124 0.5
1079 2 0.335149 0.849581 0.5
1105 2 0.349071 0.840342 0.5
487 1 0.440998 0.84994 0.5
1030 2 0.497997 0.83587 0.5
1072 2 0.523285 0.848591 0.5
438 1 0.57838 0.836544 0.5
1046 2 0.586592 0.848485 0.5
442 1 0.632109 0.847967 0.5
792 1 0.633417 0.839713 0.5
907 1 0.656741 0.850074 0.5
122 1 0.678875 0.847798 0.5
278 1 0.721298 0.857117 0.5
472 1 0.729984 0.837585 0.5
1001 2 0.718025 0.841725 0.5
1052 2 0.771573 0.835605 0.5
98 1 0.882837 0.84151 0.5
662 1 0.888966 0.847181 0.5
608 1 0.924249 0.847721 0.5
407 1 0.942217 0.837069 0.5
1080 2 0.951678 0.844874 0.5
303 1 0.968813 0.84267 0.5
1091 2 0.999277 0.855541 0.5
876 1 0.0208172 0.875474 0.5
802 1 0.0769246 0.871458 0.5
882 1 0.0897171 0.875471 0.5
914 1 0.101676 0.865031 0.5
167 1 0.146717 0.87466 0.5
24 1 0.213475 0.876324 0.5
145 1 0.305282 0.867673 0.5
508 1 0.297725 0.8587 0.5
485 1 0.3245 0.873633 0.5
575 1 0.32569 0.876189 0.5
630 1 0.469439 0.864726 0.5
720 1 0.456052 0.872255 0.5
158 1 0.489371 0.864847 0.5
523 1 0.556664 0.859237 0.5
14 1 0.583082 0.860443 0.5
1129 2 0.583618 0.860048 0.5
159 1 0.631872 0.871201 0.5
640 1 0.657575 0.862875 0.5
331 1 0.818639 0.860873 0.5
638 1 0.826969 0.876106 0.5
68 1 0.866119 0.859044 0.5
238 1 0.86237 0.858838 0.5
249 1 0.869273 0.875449 0.5
1016 2 0.889443 0.87173 0.5
869 1 0.94198 0.857682 0.5
235 1 0.00612167 0.886883 0.5
110 1 0.0293265 0.890742 0.5
264 1 0.194198 0.881965 0.5
606 1 0.301951 0.896431 0.5
644 1 0.389534 0.892288 0.5
812 1 0.49562 0.892704 0.5
864 1 0.48616 0.894338 0.5
102 1 0.667692 0.892884 0.5
171 1 0.698929 0.897864 0.5
844 1 0.702856 0.899945 0.5
234 1 0.734747 0.900098 0.5
696 1 0.794901 0.90342 0.5
106 1 0.87338 0.890118 0.5
133 1 0.859992 0.89353 0.5
421 1 0.94335 0.885435 0.5
1083 2 0.996008 0.900028 0.5
667 1 0.0468798 0.90804 0.5
554 1 0.0540797 0.916897 0.5
925 1 0.0528899 0.920977 0.5
328 1 0.0734756 0.905212 0.5
1114 2 0.0938243 0.905026 0.5
590 1 0.11108 0.91571 0.5
681 1 0.11703 0.916102 0.5
609 1 0.137914 0.925742 0.5
1074 2 0.199792 0.908974 0.5
124 1 0.225854 0.924049 0.5
1044 2 0.219011 0.925265 0.5
689 1 0.253461 0.910914 0.5
997 1 0.29273 0.917939 0.5
548 1 0.334855 0.916057 0.5
735 1 0.38781 0.916987 0.5
250 1 0.411609 0.91876 0.5
950 1 0.41268 0.909407 0.5
544 1 0.445405 0.919356 0.5
588 1 0.430827 0.908261 0.5
3 1 0.481401 0.911685 0.5
522 1 0.502642 0.90554 0.5
105 1 0.555239 0.907456 0.5
2 1 0.584573 0.926566 0.5
989 1 0.78913 0.907218 0.5
189 1 0.862493 0.923176 0.5
339 1 0.87594 0.917704 0.5
1117 2 0.879449 0.904854 0.5
129 1 0.889029 0.917688 0.5
626 1 0.950789 0.911582 0.5
647 1 0.0395035 0.935604 0.5
889 1 0.0270091 0.942511 0.5
957 1 0.0926959 0.939299 0.5