LAMMPS data file via write_data, version 3 Nov 2022, timestep = 97

1150 atoms
2 atom types

-30 30 xlo xhi
-30 30 ylo yhi
-0.5 0.5 zlo zhi

Masses

1 1
2 1

Pair Coeffs # lj/cut

1 1 1
2 0.5 3

Atoms # atomic

345 1 -28.836527978635523 -29.32379134924253 0 0 0 0
979 1 -29.382597284003467 -28.335352105920894 0 0 0 0
435 1 -25.41272970465001 -29.697644643809667 0 0 0 0
533 1 -25.0334223812446 -28.519424750144708 0 0 0 0
347 1 -24.33086681362878 -29.373591404712414 0 0 0 0
448 1 -23.610197298718113 -28.5187851725338 0 0 0 0
465 1 -21.594434951800736 -29.515122247021324 0 0 0 0
846 1 -19.589451104663272 -29.956228673857563 0 0 0 0
515 1 -18.140787952603613 -29.56814428354133 0 0 0 0
842 1 -14.745655024242563 -28.65413059221905 0 0 0 0
787 1 -12.989513138005535 -29.492106254560223 0 0 0 0
36 1 -10.405919873206756 -29.840692475135835 0 0 0 0
364 1 -11.541790203872502 -29.931587863363454 0 0 0 0
625 1 -4.757822679636595 -28.773352167289758 0 0 0 0
387 1 7.417642863399727 -29.431703322476856 0 0 0 0
944 1 6.322303786744609 -29.242449447127644 0 0 0 0
970 1 6.748034203566038 29.67376942449773 0 0 -1 0
223 1 11.273081028896458 -28.5703876587309 0 0 0 0
484 1 11.195195948715684 -29.695603133380178 0 0 0 0
646 1 12.215665223498444 29.848294763413616 0 0 -1 0
813 1 12.510493315624204 -29.06753474304057 0 0 0 0
567 1 16.299792015260564 -28.88425791564626 0 0 0 0
295 1 18.456843971675266 -28.79933855457017 0 0 0 0
207 1 19.800803244967724 -28.660356452983226 0 0 0 0
137 1 21.323059450177364 -29.799293235727607 0 0 0 0
320 1 20.963132379403525 -28.718999247753903 0 0 0 0
10 1 23.123569854293738 -29.917953657112896 0 0 0 0
126 1 24.203694748699135 -29.629074001940047 0 0 0 0
941 1 25.277655324688055 -29.285158173216345 0 0 0 0
566 1 26.892840501664114 -29.395998150685582 0 0 0 0
833 1 28.186956474263695 -28.936980325175544 0 0 0 0
855 1 28.219826936457114 29.941651975342722 0 0 -1 0
74 1 29.194798361224006 -29.47427823623898 0 0 0 0
890 1 -26.928395343003086 -27.95932281418255 0 0 0 0
483 1 -23.836202009267883 -27.426580665623543 0 0 0 0
894 1 -17.060693529087906 -27.1816434475444 0 0 0 0
109 1 -13.608404479316276 -28.440239193768264 0 0 0 0
671 1 -12.624601832431278 -27.883269522035594 0 0 0 0
372 1 -7.561171746929288 -27.744642643614174 0 0 0 0
859 1 -8.654910802188052 -27.93118297522361 0 0 0 0
15 1 -5.99661114443121 -26.91347031539615 0 0 0 0
101 1 -6.480242185913912 -27.93165387798177 0 0 0 0
920 1 -5.369786363337495 -27.84703119427698 0 0 0 0
885 1 -5.873439734294302 -28.873704536375826 0 0 0 0
49 1 -2.68542019908034 -28.101900906553208 0 0 0 0
954 1 -3.8001054781771137 -28.20339309204006 0 0 0 0
653 1 3.957758804719506 -27.27249838368864 0 0 0 0
562 1 6.829476949564925 -27.836973837786797 0 0 0 0
393 1 7.808269559588232 -28.3850270911014 0 0 0 0
119 1 12.368490260121996 -27.96805851620465 0 0 0 0
839 1 13.582694430222304 -28.053708692751247 0 0 0 0
90 1 14.709635819292096 -27.23744893281961 0 0 0 0
642 1 15.845104409162364 -27.50043842753364 0 0 0 0
564 1 21.12402760449521 -27.616545221383763 0 0 0 0
540 1 22.060401497332435 -28.21010353268359 0 0 0 0
673 1 22.354080224831733 -27.110980579961915 0 0 0 0
479 1 24.389222629375407 -28.542095666916445 0 0 0 0
898 1 26.673982973533285 -28.006304035452843 0 0 0 0
939 1 26.019603839539997 -27.09005830882342 0 0 0 0
619 1 27.793477382937603 -27.870619466733565 0 0 0 0
648 1 -28.523907239416346 -26.929176236799385 0 0 0 0
468 1 -26.16841849948352 -27.08573596542104 0 0 0 0
348 1 -23.784482594692108 -26.26889489209465 0 0 0 0
39 1 -21.99001126635905 -26.768806560453648 0 0 0 0
744 1 -18.127865279884098 -26.83190295655048 0 0 0 0
838 1 -15.161107572355935 -26.79271314438251 0 0 0 0
929 1 -15.657947603632692 -25.77316231712796 0 0 0 0
467 1 -13.63729853750891 -26.80372609325996 0 0 0 0
516 1 -14.395082803765092 -27.62161943394961 0 0 0 0
230 1 -11.03769539352216 -26.386028066301286 0 0 0 0
431 1 -12.85356739327391 -26.00858514701399 0 0 0 0
553 1 -12.09138175444795 -26.84010435943195 0 0 0 0
690 1 -8.931694142963755 -25.99051566988275 0 0 0 0
71 1 -8.2221066111083 -26.860195799509444 0 0 0 0
275 1 -7.090392723648739 -26.730985426887283 0 0 0 0
631 1 -3.850199458851118 -27.085136543475876 0 0 0 0
405 1 -2.853048643140401 -26.272069990975357 0 0 0 0
798 1 1.609871826760637 -26.304541628702488 0 0 0 0
187 1 5.955516379304625 -26.324507124284956 0 0 0 0
884 1 4.848684058996426 -26.578362695653322 0 0 0 0
89 1 8.598412021667361 -26.354790737748917 0 0 0 0
443 1 7.515449705893587 -26.025562248777383 0 0 0 0
692 1 13.657019556807612 -26.653964476745944 0 0 0 0
852 1 15.735405850381266 -25.96649174301124 0 0 0 0
311 1 19.459511263006668 -26.354480414252375 0 0 0 0
422 1 20.46268053863615 -25.844187663725883 0 0 0 0
904 1 27.167954822820207 -26.95351429274716 0 0 0 0
188 1 28.155437562480817 -26.056848493850175 0 0 0 0
217 1 28.58377332154656 -27.07369313422649 0 0 0 0
688 1 27.07790629945899 -25.805972421388386 0 0 0 0
150 1 29.27243603201905 -26.035308326935137 0 0 0 0
442 1 -28.724678788240997 -25.55350265889396 0 0 0 0
21 1 -26.797601870547204 -25.02248401457111 0 0 0 0
611 1 -25.740479970330586 -24.602602316965854 0 0 0 0
34 1 -24.854153452680503 -25.375838256403703 0 0 0 0
466 1 -23.06597396060289 -25.38888305754497 0 0 0 0
397 1 -20.741056641934364 -25.45881779887497 0 0 0 0
857 1 -20.134890828440966 -24.505592386914284 0 0 0 0
97 1 -18.530715635464354 -25.785955552783523 0 0 0 0
401 1 -19.607014657262795 -25.480890319223693 0 0 0 0
805 1 -14.873822697540232 -24.156559528516897 0 0 0 0
972 1 -14.652379554008977 -25.270655940760477 0 0 0 0
346 1 -13.79181678863801 -24.538258512799366 0 0 0 0
159 1 -12.058250547103048 -24.527585454365788 0 0 0 0
279 1 -11.829449325131696 -25.631720045773996 0 0 0 0
400 1 -10.977344633478817 -24.943181959015007 0 0 0 0
246 1 -6.495143387842898 -24.340311242534703 0 0 0 0
309 1 -6.304319327212316 -25.501506397797936 0 0 0 0
498 1 -4.784045816194898 -24.52068586345271 0 0 0 0
647 1 -1.3903245378444167 -25.684524771221387 0 0 0 0
351 1 -0.32924174090484676 -25.28630851767613 0 0 0 0
610 1 0.8026662483256259 -25.301096715148883 0 0 0 0
166 1 1.8125509331676268 -24.81681605729515 0 0 0 0
500 1 12.634156599764676 -24.82669060123833 0 0 0 0
856 1 11.503149013343293 -24.852483312411785 0 0 0 0
329 1 16.532527035287245 -25.162524581961094 0 0 0 0
514 1 25.416652149725614 -24.740057011698713 0 0 0 0
742 1 28.307753595362342 -24.946969525128342 0 0 0 0
338 1 29.40199262054478 -24.67199125662945 0 0 0 0
192 1 -29.524587267574983 -24.313418990272687 0 0 0 0
419 1 -27.557305591863532 -23.96675405806078 0 0 0 0
967 1 -26.466237502438446 -23.726765366143972 0 0 0 0
7 1 -24.85321738173867 -23.51414992286524 0 0 0 0
108 1 -23.8459757347587 -24.040956683667023 0 0 0 0
191 1 -21.929415564088448 -23.55138892320537 0 0 0 0
333 1 -22.753558623376108 -24.303466874990658 0 0 0 0
360 1 -21.238094277941375 -24.415136278529616 0 0 0 0
248 1 -19.9155689770775 -23.405864825456263 0 0 0 0
660 1 -18.6589976449909 -22.99863611538241 0 0 0 0
300 1 -16.035284724811675 -24.229670456426774 0 0 0 0
520 1 -14.191185422475053 -23.249953016771126 0 0 0 0
288 1 -10.373614925409152 -24.0154848837622 0 0 0 0
402 1 -7.622392863848194 -23.71706896294557 0 0 0 0
730 1 -8.23436993624997 -22.73924184072195 0 0 0 0
30 1 3.2463649037266107 -23.761637210075286 0 0 0 0
62 1 8.989443226390843 -23.2437000796164 0 0 0 0
214 1 13.98228419143161 -23.8100391449609 0 0 0 0
168 1 16.063336183284882 -24.138925907215352 0 0 0 0
576 1 17.977935080840222 -22.950889557853714 0 0 0 0
743 1 18.787650441732367 -23.706887743115217 0 0 0 0
868 1 22.273138929957558 -23.746465174415455 0 0 0 0
992 1 23.09563398358668 -22.98721623053524 0 0 0 0
278 1 23.34328401397859 -24.080964210615956 0 0 0 0
375 1 25.530214885769343 -23.59734360209462 0 0 0 0
599 1 26.441663182673597 -24.309487827295353 0 0 0 0
828 1 26.565291620317655 -23.199563171575292 0 0 0 0
98 1 29.83245443663162 -21.782845204788796 0 -1 0 0
799 1 -29.0294450485271 -21.543791110166612 0 0 0 0
120 1 -27.194584153128645 -22.485382048090038 0 0 0 0
628 1 -27.773302390049526 -21.450528375569732 0 0 0 0
702 1 -28.319093827848512 -22.41948925908256 0 0 0 0
396 1 -23.363297517099706 -21.92946933168982 0 0 0 0
696 1 -23.867638492254006 -22.930947103934397 0 0 0 0
988 1 -22.766340788509037 -22.852576402742137 0 0 0 0
956 1 -20.380207534347466 -21.599335457249893 0 0 0 0
445 1 -19.563341518884457 -22.351630919769125 0 0 0 0
529 1 -16.529237088386775 -21.929809872805734 0 0 0 0
547 1 -12.694865481394256 -22.8228356648338 0 0 0 0
822 1 -12.106326895448051 -21.848292803673324 0 0 0 0
148 1 -7.973366344435725 -21.637235383285645 0 0 0 0
227 1 -7.144787125645284 -22.538861057017574 0 0 0 0
766 1 -6.862163593654276 -21.450872179709304 0 0 0 0
332 1 -4.524905472638822 -22.049200402049276 0 0 0 0
501 1 -5.800686639742358 -21.849547970797698 0 0 0 0
629 1 -4.3564633628856 -23.176684010005783 0 0 0 0
963 1 -5.431972101909675 -22.89647388588403 0 0 0 0
982 1 -1.4966048145887028 -22.073766127701965 0 0 0 0
261 1 -0.4138558625487633 -22.341656627104076 0 0 0 0
198 1 1.9455832164742588 -21.96632851747775 0 0 0 0
727 1 4.191844487599385 -21.87653576399453 0 0 0 0
862 1 3.069445442452835 -21.959312853020318 0 0 0 0
948 1 5.781037139464574 -22.82591813949655 0 0 0 0
319 1 7.377141308751798 -21.23777196472117 0 0 0 0
793 1 7.60707561801505 -22.361283787202662 0 0 0 0
210 1 18.89235553542048 -22.331436419625053 0 0 0 0
494 1 19.971318337960916 -22.594876595512453 0 0 0 0
918 1 22.013605497258013 -22.6573567776912 0 0 0 0
125 1 26.4343376426678 -21.39692477533735 0 0 0 0
228 1 25.833535658202067 -22.365109772743487 0 0 0 0
718 1 27.446851694885044 -22.516371589762056 0 0 0 0
154 1 28.552649164934397 -22.785398183877444 0 0 0 0
158 1 -26.7294886847801 -19.965360279510538 0 0 0 0
358 1 -26.6895964647314 -21.112525449971958 0 0 0 0
344 1 -23.42007079071351 -20.835745502853552 0 0 0 0
598 1 -22.450590186228542 -20.28577011772096 0 0 0 0
848 1 -19.532600771488003 -20.75471112602871 0 0 0 0
762 1 -17.3824195858629 -21.159999838413476 0 0 0 0
633 1 -17.143970958255682 -20.05317011734859 0 0 0 0
897 1 -16.307472379836423 -20.831018093453896 0 0 0 0
181 1 -14.141287303978434 -20.757657688507386 0 0 0 0
121 1 -13.150767682896321 -20.21711345000223 0 0 0 0
983 1 -8.834274449233858 -20.571976638502473 0 0 0 0
8 1 -3.6873976880937196 -20.75104272904646 0 0 0 0
810 1 3.845067047618463 -20.04782258693852 0 0 0 0
243 1 4.942841131032818 -20.284941924626956 0 0 0 0
212 1 7.862570230026427 -20.19184224564205 0 0 0 0
759 1 8.975403097670815 -20.2704582854821 0 0 0 0
46 1 15.444955867013006 -20.72308980113713 0 0 0 0
697 1 14.534187436684045 -19.998536494673527 0 0 0 0
316 1 18.11257542313661 -20.21748352961495 0 0 0 0
823 1 18.53036006404315 -21.266634189855687 0 0 0 0
538 1 21.205281915640654 -20.75434631107038 0 0 0 0
820 1 23.8320375640965 -20.872504954526207 0 0 0 0
774 1 -29.331134214271117 -19.23271956591561 0 0 0 0
205 1 -24.977159510328296 -18.99822812407775 0 0 0 0
352 1 -23.464756439895506 -19.73253470241005 0 0 0 0
83 1 -19.901612917649523 -19.6700556742128 0 0 0 0
883 1 -16.768149315094618 -18.892098720397822 0 0 0 0
425 1 -16.08202413630792 -19.74649926376342 0 0 0 0
713 1 -15.094696608688531 -19.231161568553023 0 0 0 0
866 1 -15.205202814208628 -20.40065535690405 0 0 0 0
583 1 -12.953049303877753 -19.07801290015792 0 0 0 0
366 1 -8.744580034376856 -18.78198160399436 0 0 0 0
559 1 -6.317361996109919 -19.224950480693927 0 0 0 0
376 1 -3.5756822497952103 -19.685369506370844 0 0 0 0
837 1 1.041930590129402 -19.740873326235103 0 0 0 0
35 1 8.54109539340331 -19.243383764092275 0 0 0 0
461 1 11.301385550573357 -18.92782391258991 0 0 0 0
220 1 13.26466430594847 -19.801340018137758 0 0 0 0
408 1 15.091379912721646 -19.038853029437004 0 0 0 0
844 1 21.924144766564005 -19.669798623506882 0 0 0 0
310 1 23.626948837005607 -18.771930909288816 0 0 0 0
42 1 24.729028855908304 -18.585848565875676 0 0 0 0
170 1 27.576468643623567 -19.580122554413602 0 0 0 0
914 1 28.596640117390724 -19.105141604327354 0 0 0 0
151 1 -29.437560877686384 -18.108706317866964 0 0 0 0
643 1 -27.498021090247843 -18.526179603193004 0 0 0 0
476 1 -26.482558327339035 -16.736607780477215 0 0 0 0
603 1 -27.38332692464981 -17.410081472757167 0 0 0 0
877 1 -26.324519310122927 -17.83445216160246 0 0 0 0
80 1 -23.35759319800879 -17.743340354337622 0 0 0 0
525 1 -19.672213111136045 -18.561441097132906 0 0 0 0
965 1 -15.017784689178786 -18.050933691546188 0 0 0 0
103 1 -13.759604329818702 -17.630029315090173 0 0 0 0
906 1 -12.634444886787296 -17.951684046563813 0 0 0 0
139 1 -9.481979494360315 -17.994501365151766 0 0 0 0
146 1 -8.09910662312345 -17.773352477334523 0 0 0 0
650 1 -7.684237962188275 -18.969974078226784 0 0 0 0
113 1 -6.88998049740523 -18.327273369981082 0 0 0 0
548 1 -5.857371781390577 -18.230149854017252 0 0 0 0
82 1 -3.7316801556219032 -18.68917926050347 0 0 0 0
116 1 -4.754537497753241 -18.25249226026131 0 0 0 0
124 1 -1.334234550563141 -18.112700260190916 0 0 0 0
976 1 4.997737611193252 -18.40477514125685 0 0 0 0
211 1 7.206288103922654 -17.568291870013173 0 0 0 0
830 1 9.689211951031002 -17.52114114811902 0 0 0 0
931 1 9.44405607598791 -18.59063193582918 0 0 0 0
723 1 10.56010031454418 -18.18601639786684 0 0 0 0
691 1 12.06230667377727 -18.13297600156399 0 0 0 0
26 1 13.807136539186583 -18.820501738301154 0 0 0 0
728 1 13.062802731991408 -17.7180311554982 0 0 0 0
112 1 14.150293808833979 -17.75472058930707 0 0 0 0
180 1 15.135182284126381 -17.245019701080402 0 0 0 0
907 1 17.56995474364518 -17.73974921431387 0 0 0 0
232 1 18.715375817952733 -17.67533536608044 0 0 0 0
758 1 20.38668114701112 -17.934461252563477 0 0 0 0
801 1 21.55046357788615 -18.223951302481257 0 0 0 0
165 1 23.833938571207625 -17.66581093321779 0 0 0 0
20 1 28.57614457007606 -17.97565866109133 0 0 0 0
24 1 27.54581699282951 -17.541787996380645 0 0 0 0
896 1 -29.12547808128778 -16.363065581225758 0 0 0 0
111 1 -26.683462162434314 -15.628296038946425 0 0 0 0
551 1 -25.621349811902864 -16.039861340528606 0 0 0 0
880 1 -25.225286870281963 -17.095967585662493 0 0 0 0
480 1 -24.08174617151794 -16.90635283542211 0 0 0 0
694 1 -22.941281555261863 -16.68145432902621 0 0 0 0
977 1 -23.727389950638777 -15.857720309129709 0 0 0 0
391 1 -21.821560294086986 -16.636913677320873 0 0 0 0
996 1 -20.698793002590516 -16.43996626949148 0 0 0 0
555 1 -19.575280971797444 -16.556614527047138 0 0 0 0
915 1 -17.512501758729506 -17.039739258912693 0 0 0 0
678 1 -16.563546756674878 -16.379263081730745 0 0 0 0
741 1 -14.681743083758123 -16.91502904342508 0 0 0 0
753 1 -12.92040015122177 -16.8675409770298 0 0 0 0
761 1 -11.82060208225626 -17.125883403629707 0 0 0 0
450 1 -10.32469956870028 -17.200007164158897 0 0 0 0
597 1 -9.57752259029494 -16.339463107288545 0 0 0 0
224 1 -6.6009135576294 -17.337265578527756 0 0 0 0
239 1 -0.6777882833405878 -17.257796977040904 0 0 0 0
255 1 3.7773007671739194 -18.029999343024134 0 0 0 0
413 1 4.372477627639569 -17.191019920175165 0 0 0 0
5 1 8.647332929547158 -17.735485519270586 0 0 0 0
294 1 9.558444963005963 -16.456307072156896 0 0 0 0
485 1 10.505498464489504 -16.79375032631611 0 0 0 0
618 1 11.321320094881006 -16.163455479427867 0 0 0 0
620 1 11.325922688634687 -17.38994412053867 0 0 0 0
182 1 12.277848686721095 -16.8897684503952 0 0 0 0
233 1 12.30872097353331 -15.768092992525142 0 0 0 0
698 1 13.891203882407343 -16.67025347907665 0 0 0 0
638 1 15.991764892429021 -16.486819714345263 0 0 0 0
270 1 17.616566203010574 -16.38200249873049 0 0 0 0
607 1 19.432342154824465 -16.524659164568988 0 0 0 0
163 1 20.535180144138664 -16.202971840541586 0 0 0 0
740 1 21.192046731798012 -17.141217785516556 0 0 0 0
204 1 22.029089022972602 -16.349881598683016 0 0 0 0
312 1 23.101174315285938 -16.775735836477946 0 0 0 0
50 1 24.89072625683937 -16.259528323427165 0 0 0 0
253 1 25.942128641022098 -15.882836127294796 0 0 0 0
569 1 28.239305014517456 -16.48902958119907 0 0 0 0
511 1 -28.816297461089647 -15.275592742922083 0 0 0 0
486 1 -23.07221951425363 -14.957633709138914 0 0 0 0
808 1 -22.01495123386227 -14.653604770426552 0 0 0 0
131 1 -20.02594963522783 -14.304652316997375 0 0 0 0
355 1 -20.34220181273843 -15.378975575014369 0 0 0 0
773 1 -21.43663969923287 -15.593498585524125 0 0 0 0
93 1 -19.225167399211788 -15.467966525799715 0 0 0 0
460 1 -18.256647177080882 -14.819719308020144 0 0 0 0
193 1 -15.966971682707232 -15.078923236272594 0 0 0 0
296 1 -17.00003645199438 -14.616897438245621 0 0 0 0
453 1 -15.146266462432443 -15.858891104647748 0 0 0 0
57 1 -8.993588168954979 -15.359905190706872 0 0 0 0
254 1 -7.835860840870777 -15.788502849502327 0 0 0 0
263 1 -6.921047140007377 -16.324853088356083 0 0 0 0
731 1 -6.302419004036246 -15.135361697251192 0 0 0 0
266 1 -3.778817345349212 -17.69192841517346 0 0 0 0
1004 2 -0.07219831306359614 -15.726934578998367 0 0 0 0
812 1 0.3600911130282626 -17.45983533481433 0 0 0 0
1032 2 2.2100636600466697 -17.031588843021105 0 0 0 0
105 1 3.5158973326425493 -15.741760701695325 0 0 0 0
267 1 4.511411195048245 -16.18290991453304 0 0 0 0
604 1 8.432032077535187 -16.698730641571593 0 0 0 0
802 1 8.148467519197602 -13.973297506108063 0 0 0 0
937 1 8.537936460327197 -14.856720490923788 0 0 0 0
52 1 8.851188842282927 -15.768794006237155 0 0 0 0
237 1 9.787932881036921 -15.155509236143994 0 0 0 0
147 1 11.398761596921275 -15.04936124071569 0 0 0 0
850 1 12.471245719845347 -14.680504254435634 0 0 0 0
63 1 15.097273921659156 -14.823852405159473 0 0 0 0
829 1 16.43559514007746 -14.632919586438671 0 0 0 0
925 1 17.407459665893835 -15.225413928204267 0 0 0 0
138 1 19.26876111201764 -15.067290477070545 0 0 0 0
409 1 20.285937958452365 -14.557901136025524 0 0 0 0
130 1 23.26177322174166 -14.779713988384241 0 0 0 0
102 1 24.192132151257674 -15.39805692484533 0 0 0 0
281 1 25.403053137403575 -13.876570104028998 0 0 0 0
872 1 25.24152070241279 -15.010904739136 0 0 0 0
527 1 27.998015392113416 -14.802030706400611 0 0 0 0
47 1 -29.995082770993722 -14.79035310428687 0 1 0 0
769 1 -23.36754135993854 -12.851127622034284 0 0 0 0
747 1 -22.6437976844381 -13.72995677136448 0 0 0 0
250 1 -21.12737515232964 -13.991535750277496 0 0 0 0
269 1 -18.699276258742632 -13.78400637621198 0 0 0 0
64 1 -16.000843090249486 -13.94841737316777 0 0 0 0
947 1 -17.007834177823682 -13.50820934480912 0 0 0 0
430 1 -14.982004153562357 -13.456469831348834 0 0 0 0
29 1 -13.911073968055124 -13.090620864492013 0 0 0 0
873 1 -10.89948261920883 -13.981594760703944 0 0 0 0
1110 2 -7.662440008944383 -14.124713994190495 0 0 0 0
1131 2 -5.085678386346089 -16.59093333776592 0 0 0 0
1149 2 -2.410412256278829 -16.67439462198456 0 0 0 0
406 1 9.170683433581553 -14.02481907818782 0 0 0 0
341 1 10.54809134748551 -14.283109485983061 0 0 0 0
543 1 11.633410468475 -13.960424351989303 0 0 0 0
584 1 15.20857692975546 -12.84537879633505 0 0 0 0
235 1 16.550037336398972 -13.51211282002449 0 0 0 0
144 1 17.617350002307276 -13.907139687480653 0 0 0 0
526 1 18.754896424448052 -14.054936368185764 0 0 0 0
834 1 21.16501320475423 -13.403018634278041 0 0 0 0
302 1 26.4753496427581 -13.58108244700196 0 0 0 0
367 1 -26.455770487932845 -11.767021643675884 0 0 0 0
910 1 -26.03330686557669 -12.815478830606885 0 0 0 0
513 1 -22.41619063503653 -12.264658000705666 0 0 0 0
315 1 -20.886832430337027 -12.00720673094221 0 0 0 0
149 1 -17.634016745979213 -11.408714191579227 0 0 0 0
314 1 -17.503529592559907 -12.524698829092614 0 0 0 0
765 1 -16.35323051683767 -12.587539264117618 0 0 0 0
682 1 -14.702647103680587 -11.85486103156127 0 0 0 0
725 1 -11.626875713765678 -13.07092912938761 0 0 0 0
17 1 -9.284517908092047 -13.466896961867745 0 0 0 0
43 1 -8.33523540582445 -12.200381403823977 0 0 0 0
1019 2 -4.887515402753387 -14.055444209918187 0 0 0 0
1020 2 -2.282723960041131 -14.160443383741788 0 0 0 0
1084 2 0.014739555120777544 -13.209782517256524 0 0 0 0
1048 2 2.2766270922134066 -14.36343580789425 0 0 0 0
1055 2 2.1774005426314003 -11.742529562567404 0 0 0 0
1141 2 4.814207836375717 -14.490433942557768 0 0 0 0
1107 2 6.951463046711603 -12.942131881740558 0 0 0 0
1129 2 6.878854337162665 -15.858001045026011 0 0 0 0
624 1 8.641570483904726 -13.026323279382762 0 0 0 0
554 1 9.672552668425402 -13.128081476257261 0 0 0 0
142 1 10.456144684123036 -12.41358010092666 0 0 0 0
171 1 13.93290221169181 -12.242510595818693 0 0 0 0
45 1 14.746626601415938 -11.467954489096126 0 0 0 0
432 1 20.059307165626716 -12.116778269025145 0 0 0 0
265 1 21.40437784869141 -11.168901884010149 0 0 0 0
328 1 22.173266339723448 -12.888105102891693 0 0 0 0
577 1 21.232146976835946 -12.271475165221402 0 0 0 0
704 1 22.34429534456889 -11.77792413634807 0 0 0 0
815 1 25.69428063696716 -12.777963337589014 0 0 0 0
380 1 27.806992763784915 -11.849898601085052 0 0 0 0
452 1 27.26910948684627 -12.817092760064021 0 0 0 0
724 1 28.384859943841455 -12.825145067356114 0 0 0 0
590 1 -28.3366723449248 -11.44198282130382 0 0 0 0
989 1 -29.400413305122683 -11.08000803406043 0 0 0 0
804 1 -28.08745031808132 -10.342974705363565 0 0 0 0
592 1 -26.325763896945002 -10.652738773713857 0 0 0 0
140 1 -24.32186310937578 -11.05256427333286 0 0 0 0
662 1 -23.281836108639325 -11.536631304026422 0 0 0 0
70 1 -20.689499150184155 -9.907097692887966 0 0 0 0
160 1 -21.239694076545675 -10.94289667061047 0 0 0 0
395 1 -20.11664511017109 -10.873377449923824 0 0 0 0
998 1 -19.16222931262726 -10.151082987179247 0 0 0 0
439 1 -15.921152898847994 -10.605007207473646 0 0 0 0
535 1 -12.202739674172825 -11.465168347803342 0 0 0 0
1023 2 -3.4471341929011707 -11.942708612391057 0 0 0 0
1099 2 -6.261934848194604 -11.977097602133284 0 0 0 0
1068 2 -0.17294260447633145 -10.730845710091737 0 0 0 0
1064 2 4.636349528884023 -12.004596207350055 0 0 0 0
1067 2 6.819942301278228 -10.438132807518135 0 0 0 0
1045 2 9.168899685221424 -11.39245316178833 0 0 0 0
1132 2 12.138661858718526 -12.230147169361567 0 0 0 0
672 1 12.97103268627769 -10.004490031389802 0 0 0 0
200 1 15.793611399985576 -11.418983376172806 0 0 0 0
665 1 19.079097395084357 -10.952513007738615 0 0 0 0
379 1 23.45895982198292 -11.014405254295312 0 0 0 0
499 1 23.661686238317753 -9.887257328555037 0 0 0 0
935 1 26.544822581426477 -10.50152733827534 0 0 0 0
318 1 28.376125100665433 -10.893775056480262 0 0 0 0
56 1 -27.58404595184835 -9.317675863037886 0 0 0 0
95 1 -26.780290582879235 -8.471554998151069 0 0 0 0
539 1 -25.71611405635878 -8.79143068206871 0 0 0 0
803 1 -26.509217009506408 -9.557504189965156 0 0 0 0
229 1 -24.67523707508254 -9.139184868298855 0 0 0 0
370 1 -25.460344337256487 -9.935345879782245 0 0 0 0
11 1 -18.570563763751 -9.105789482967413 0 0 0 0
374 1 -16.46333935397053 -9.326528582679302 0 0 0 0
875 1 -16.999007688316038 -10.181351340095778 0 0 0 0
459 1 -15.757898953429137 -8.554513020393964 0 0 0 0
729 1 -15.49047460615202 -9.634736946418572 0 0 0 0
203 1 -14.897469858810805 -10.732408213727602 0 0 0 0
1065 2 -10.228361639136551 -12.153694332897228 0 0 0 0
1116 2 -13.858792357599713 -9.455089198041113 0 0 0 0
1053 2 -8.272205296128833 -10.483255625161174 0 0 0 0
1101 2 -4.923130674897853 -9.888842771151902 0 0 0 0
1015 2 -2.384078376794482 -9.673387548224454 0 0 0 0
1027 2 4.486046570125792 -9.503309365466093 0 0 0 0
1103 2 1.9941983993814203 -9.216382752996324 0 0 0 0
1081 2 11.200095412556422 -9.878759061121082 0 0 0 0
407 1 14.100767225051696 -10.016150113850822 0 0 0 0
579 1 15.27641146956023 -10.013739096054291 0 0 0 0
854 1 15.330202208388785 -8.916642055431986 0 0 0 0
373 1 16.39305189575209 -8.93536291894933 0 0 0 0
54 1 18.093721406462343 -8.832942941882182 0 0 0 0
301 1 17.289280959841417 -9.60430033745866 0 0 0 0
532 1 25.41155182563608 -9.590199938177141 0 0 0 0
942 1 26.505708451334137 -9.390403041764541 0 0 0 0
521 1 29.157437918515477 -9.3211775056524 0 0 0 0
645 1 -29.297126192504624 -7.88323490610201 0 0 0 0
858 1 -25.806193932314557 -7.668230882355273 0 0 0 0
156 1 -22.506943027499684 -7.040361664048459 0 0 0 0
689 1 -23.577567604421198 -7.372130810645914 0 0 0 0
778 1 -24.6845963445271 -7.53155454509359 0 0 0 0
912 1 -23.794970015126115 -8.46608160746679 0 0 0 0
955 1 -20.65427964122962 -8.457831155164529 0 0 0 0
701 1 -19.53606271607454 -8.517637554466976 0 0 0 0
321 1 -16.05157604708754 -7.574639723299245 0 0 0 0
807 1 -16.853276013791895 -8.282899534831072 0 0 0 0
67 1 -13.95518714183966 -7.72881573776594 0 0 0 0
1079 2 -11.402593285205002 -9.885855618840136 0 0 0 0
1117 2 -9.48569505937655 -8.271487750381173 0 0 0 0
1060 2 -6.8723407578580185 -8.38940689621998 0 0 0 0
1014 2 -0.3071767335730687 -8.252139485365092 0 0 0 0
1092 2 -3.558336066169573 -7.467314452205093 0 0 0 0
1012 2 4.2294324785024004 -7.045732952249662 0 0 0 0
1013 2 8.894880109429153 -8.870436849825108 0 0 0 0
1086 2 6.554518622964819 -7.894060124401091 0 0 0 0
1087 2 8.943238982310248 -6.341672504287486 0 0 0 0
1031 2 11.29939772521702 -7.380041098008108 0 0 0 0
1042 2 13.662287899281656 -8.271011859503195 0 0 0 0
923 1 17.210656291399292 -8.160304508172425 0 0 0 0
878 1 20.626640675903147 -7.519068508736339 0 0 0 0
242 1 22.593578609607498 -7.952956656718122 0 0 0 0
377 1 23.72440253572255 -7.853128696118514 0 0 0 0
259 1 25.23758364728666 -7.629203997643641 0 0 0 0
497 1 26.152883326245014 -8.334339748250546 0 0 0 0
503 1 28.094672562193576 -7.234631517695486 0 0 0 0
550 1 27.00676629761946 -7.581432458896986 0 0 0 0
771 1 27.33076316870952 -8.638439269304403 0 0 0 0
928 1 28.612857184054164 -8.246187463072818 0 0 0 0
65 1 -29.710420280516264 -6.832862124408151 0 0 0 0
16 1 -27.39632063522718 -6.726104242555981 0 0 0 0
649 1 -28.436985721537056 -6.258568707390796 0 0 0 0
264 1 -25.308387650160864 -6.5753836873482845 0 0 0 0
901 1 -24.43398281369402 -5.774148117279794 0 0 0 0
73 1 -22.751526839422006 -5.949268323226652 0 0 0 0
457 1 -21.679018046075495 -6.247529905484452 0 0 0 0
734 1 -20.590319111103277 -5.954580163228046 0 0 0 0
206 1 -17.95200866941208 -6.843329751721204 0 0 0 0
950 1 -16.86910196544805 -6.852683860277031 0 0 0 0
667 1 -14.897560644236696 -8.068981685069854 0 0 0 0
1126 2 -12.352216716869492 -7.472686769334313 0 0 0 0
1059 2 -1.0604464808472995 -5.882780884504839 0 0 0 0
1109 2 1.7684731377341987 -6.672116164056393 0 0 0 0
1121 2 13.512612184426871 -5.745021604081851 0 0 0 0
28 1 17.994165086370238 -6.659277358571446 0 0 0 0
675 1 21.513270672435823 -6.251158195867637 0 0 0 0
750 1 22.47005034391978 -6.836516013738077 0 0 0 0
215 1 23.852392765207473 -6.277373795291897 0 0 0 0
285 1 29.629151022516336 -5.944047179886674 0 0 0 0
825 1 28.55316326184942 -6.193081128598931 0 0 0 0
12 1 -28.387270194535137 -5.041126402545424 0 0 0 0
640 1 -29.33360574525238 -5.628654962551241 0 0 0 0
685 1 -29.775797960097723 -4.580782193955161 0 0 0 0
61 1 -25.088859792574922 -4.823707086680895 0 0 0 0
651 1 -23.44823985283104 -5.08093740701156 0 0 0 0
179 1 -21.402634654099717 -4.987148989287958 0 0 0 0
922 1 -19.301903147998623 -5.018933328578824 0 0 0 0
416 1 -17.535908003346464 -5.908614564247771 0 0 0 0
783 1 -18.565731952206086 -5.755095708384877 0 0 0 0
832 1 -17.146522893717144 -4.968313471345392 0 0 0 0
561 1 -16.52989751282475 -5.85144930951371 0 0 0 0
1090 2 -5.612126076211424 -6.060873145681443 0 0 0 0
1125 2 -3.4311845177688687 -4.97913531669523 0 0 0 0
1018 2 0.8987860292507597 -4.290368655046377 0 0 0 0
1114 2 3.3483623652807992 -4.6951558375699625 0 0 0 0
1051 2 3.016969422751922 -2.224224002956162 0 0 0 0
1136 2 5.348530093711274 -3.1612076741303534 0 0 0 0
177 1 15.601342992207487 -5.172844779036669 0 0 0 0
938 1 15.260988599830538 -6.215157561177637 0 0 0 0
169 1 16.68221626515864 -5.006791314528685 0 0 0 0
666 1 16.546480024281294 -3.916731113339223 0 0 0 0
800 1 17.57002871463404 -5.64668726746798 0 0 0 0
961 1 16.400229706805312 -6.0666603882330845 0 0 0 0
454 1 18.462954415897883 -4.9657851586090285 0 0 0 0
587 1 19.597519768857968 -5.093267378277277 0 0 0 0
871 1 18.90808247104279 -5.99133856442342 0 0 0 0
745 1 20.653231095226914 -5.533584309560785 0 0 0 0
814 1 22.12035204881519 -5.31072786980175 0 0 0 0
473 1 24.73202011077961 -5.545313180003888 0 0 0 0
262 1 28.933088256268274 -5.0923914041670075 0 0 0 0
256 1 -28.79754897162388 -3.996825012396346 0 0 0 0
919 1 -27.748344570561795 -3.552972442862597 0 0 0 0
594 1 -26.783443507275297 -4.171282162776831 0 0 0 0
308 1 -25.01968196720927 -3.4295659105974097 0 0 0 0
350 1 -22.01270679903224 -3.947416105183559 0 0 0 0
474 1 -23.145353288333077 -3.991181319032665 0 0 0 0
536 1 -21.8950792946329 -2.820964213451317 0 0 0 0
721 1 -23.015793063135817 -2.876214383541979 0 0 0 0
464 1 -20.856864583210825 -2.460801713559029 0 0 0 0
560 1 -19.880308058829044 -2.8797468014427343 0 0 0 0
574 1 -20.367211725687856 -4.637942312057855 0 0 0 0
615 1 -20.92353682890875 -3.6031625512835546 0 0 0 0
85 1 -19.623954251513304 -3.9013458151170974 0 0 0 0
782 1 -18.61584414333412 -4.237810277537305 0 0 0 0
76 1 -17.803691636706464 -3.6052860131868494 0 0 0 0
622 1 -16.879315522691886 -4.004078536863764 0 0 0 0
679 1 -16.06097365204883 -4.969950523571079 0 0 0 0
1058 2 -14.898640506308352 -6.344406371346113 0 0 0 0
1098 2 -12.91363314725189 -4.815133864626708 0 0 0 0
1069 2 -10.537181805623643 -5.769784440477483 0 0 0 0
1124 2 -8.481557327445513 -3.8281270945586714 0 0 0 0
1066 2 -8.108831746136424 -6.22505197584336 0 0 0 0
1071 2 -5.990432049029196 -3.5908387185697697 0 0 0 0
1147 2 -3.8080128266659243 -2.5034532231819875 0 0 0 0
1096 2 6.593848909675582 -5.380697354970464 0 0 0 0
1054 2 7.369731684487734 -1.741196743380703 0 0 0 0
1034 2 11.10530727297186 -4.809305798267478 0 0 0 0
1148 2 14.778440790167389 -3.5790642936630443 0 0 0 0
991 1 18.345756503155435 -3.460770930776392 0 0 0 0
1 1 19.463031802768143 -3.5685546328217925 0 0 0 0
760 1 29.573550149397025 -3.643234958805972 0 0 0 0
155 1 -27.064687997555488 -2.646205806974285 0 0 0 0
957 1 -26.10545129504009 -1.9923155042458758 0 0 0 0
86 1 -24.82820912484986 -2.2093372151963737 0 0 0 0
176 1 -21.647370727614312 -1.6725405747936983 0 0 0 0
549 1 -19.601317786953732 -1.8453331614196213 0 0 0 0
99 1 -17.783261054980443 -2.197998207685987 0 0 0 0