LAMMPS data file via write_data, version 29 Oct 2020, timestep = 90000

576 atoms
2 atom types

1.681329882496657 18.904247829103532 xlo xhi
-3.530451344195436 24.11602905581896 ylo yhi
0.7165621973343139 19.869015514264422 zlo zhi

Masses

1 28.0855
2 15.9994

Atoms # full

377 42 2 -0.55 4.382409690490315 0.36878158317009857 4.3876571036552265 -1 0 -1
165 19 1 1.1 4.560945016168721 -1.1171848111009075 3.841624638168008 1 0 0
421 47 2 -0.55 5.101847546325762 -1.2691332891154903 2.331362854213462 2 1 0
81 9 2 -0.55 5.485714223101719 -2.1110780249949515 4.761402207532272 0 -1 -1
385 43 2 -0.55 3.0095645473571184 -1.6457246325555848 3.9149023770279094 0 0 0
542 61 1 1.1 6.602411865978595 -3.1909002493817646 4.998849561153987 -1 1 1
410 46 2 -0.55 2.069766139044274 1.374004014725677 3.5979858167041385 0 0 0
208 24 1 1.1 3.3401191418424108 1.590999522626778 4.54960881963531 1 0 0
147 17 1 1.1 2.0843184988914474 -2.3029082781587804 5.072635295272724 0 0 0
80 9 2 -0.55 2.7876287838711074 -2.38869981669786 6.552131016399953 0 0 0
218 25 1 1.1 4.648645366831355 -1.6198789381097722 0.8174714022644642 1 0 1
276 31 2 -0.55 3.20710890652502 -2.4184116819758845 0.8607163957883218 0 0 0
261 29 2 -0.55 6.35897250641067 1.9124159497851145 3.0857365049503476 0 1 -1
380 43 1 1.1 7.442747333652821 1.1720393007022547 2.2329591956372528 2 0 0
248 28 2 -0.55 7.980681315528812 -2.4595637907223162 5.3849458715304 1 0 1
360 40 2 -0.55 7.944315746382092 -0.2411172567452417 2.831820849264732 0 0 1
327 37 1 1.1 9.216610013754655 -2.116547982136721 6.447241453017428 -2 -1 0
33 4 2 -0.55 10.10391282786129 -0.9861584599529236 5.715102174224769 -1 -1 1
534 60 1 1.1 11.199879707519022 -0.6773405111974825 4.492036551121336 0 0 1
51 6 2 -0.55 10.389737954102248 -1.320699778432327 3.2060639367338126 0 0 -1
44 5 2 -0.55 12.597026450468961 -1.2845388646694609 4.924608785610407 -2 0 0
280 32 1 1.1 8.966475376646295 -1.4272989900527469 2.6707145333490994 0 0 0
358 40 2 -0.55 11.51992171091629 0.8966835992667564 4.074059156100773 -1 0 1
294 33 2 -0.55 8.350605343309201 -2.6955075681191016 2.0142108495660653 0 0 2
509 57 2 -0.55 12.145760614650397 1.9308231623170882 1.5988354542726944 -2 1 0
32 4 2 -0.55 10.112020603659012 -3.444886172916386 6.549885604567187 -1 -1 -1
184 21 2 -0.55 18.572468225816653 0.2256803769038461 1.1805173934754625 -1 0 1
125 14 2 -0.55 14.22759474071171 -2.985434451872644 5.898471182628126 -1 1 -2
119 14 1 1.1 13.932982028551324 -1.3866097823104466 5.756307058710113 0 1 0
558 62 2 -0.55 15.307063807523596 -0.8618770136904939 5.033525148634314 1 1 -1
559 63 1 1.1 16.74743309396355 -0.10273154632280043 4.932995669979917 -1 1 0
458 51 2 -0.55 17.947276067236707 -1.2735957585480464 5.201658372103205 0 -1 0
140 16 2 -0.55 16.925987472613176 0.5642176654331932 3.4441889786695596 -1 0 1
246 28 1 1.1 18.164561800619587 1.1257358167961895 2.4449409268154514 0 0 0
494 55 2 -0.55 16.71946246355062 1.0252017583232538 6.127309383580081 -1 0 1
265 30 2 -0.55 15.28868378547007 -2.056856964480362 2.281850626291507 -1 0 -1
481 54 2 -0.55 14.102662826007839 0.3543263619316879 1.3938826767867565 -1 0 2
523 59 1 1.1 14.98408745728775 -0.9665865009662661 1.1268730048700868 -1 1 -1
206 23 2 -0.55 2.968084168304497 1.884255199629446 6.148612560679945 2 0 0
10 2 1 1.1 5.170544569235705 2.9520567739385526 2.6281078235735276 0 0 -1
97 11 2 -0.55 4.045787674086116 2.877611670543192 3.7706230378180146 0 0 -1
507 57 1 1.1 6.880982514788673 4.99433267193295 3.68482703888875 1 0 0
422 47 2 -0.55 6.627603307826132 4.358658333783493 5.1167882094884805 0 0 0
301 34 2 -0.55 5.944569165644716 4.358817766341345 2.5940906498774856 -1 -1 1
403 45 2 -0.55 6.882634666669179 6.611410546647205 3.8277956704650857 -2 0 0
349 39 2 -0.55 2.259234487497275 5.813072693659125 6.3070421366264275 1 0 1
205 23 2 -0.55 4.609489299945499 2.2834335776442574 1.213072617686895 -1 1 1
221 25 2 -0.55 8.748765687881601 2.0760658410791737 2.3955918891084926 0 0 1
20 3 1 1.1 7.670062496639079 3.558675017641206 6.091150763091265 0 0 0
390 44 1 1.1 11.941117398052281 2.248764043963817 3.234208135526569 0 0 1
526 59 2 -0.55 8.552218940189325 2.682444894095461 5.0485435599030755 -1 1 -1
263 30 1 1.1 9.174105807170204 3.16230000558615 3.573656349055357 1 1 0
409 46 2 -0.55 10.74219584110574 3.273310394696312 3.439655576210966 -2 0 1
288 32 2 -0.55 11.137300961621746 5.802569097173229 5.841455695176051 2 1 0
344 39 1 1.1 10.421289070222791 7.275856987030294 5.963901813184628 0 -1 1
424 48 1 1.1 11.717578837422572 4.448120050286505 6.761440225987254 0 1 -1
126 14 2 -0.55 8.476937112525308 4.769560090220069 6.842409608353881 1 0 -1
188 21 2 -0.55 10.745606708528427 3.1521943241726205 6.799905094214741 0 1 -2
445 50 2 -0.55 8.394730275302868 4.542202379609646 3.314188823200382 0 0 0
41 5 2 -0.55 13.121987034502386 3.9535606468092674 6.169272245028398 -1 -1 1
247 28 2 -0.55 13.310001191273637 2.878781630772986 3.775056830410811 -1 -1 0
115 13 2 -0.55 17.872603782657123 2.534043974707965 1.6097303581390023 0 1 1
83 10 1 1.1 16.505588559409933 2.667937960385504 6.614750101509722 1 1 1
441 49 2 -0.55 15.518457825549556 3.294030179537454 5.478555932094517 0 -1 0
310 35 2 -0.55 14.250441225270631 5.336868740732504 4.146107417550597 0 0 0
42 5 2 -0.55 17.409929950670612 5.00671686798904 1.009735177511435 1 -1 0
37 5 1 1.1 14.095841659815905 3.8319671538117484 4.8799432347705745 -1 -1 0
571 64 2 -0.55 18.01085318047916 3.2194031634066156 6.637626322970776 0 0 1
343 39 1 1.1 14.160509431401744 6.893539405221836 4.538071836673119 1 0 0
401 45 2 -0.55 15.094747401666096 7.410978262083747 5.690199536756948 0 0 3
89 10 2 -0.55 3.8179728241273088 7.818558476877513 6.732545608886047 -1 -1 0
499 56 2 -0.55 5.094041883332255 9.35611346689503 4.9444828929751665 1 1 1
357 40 2 -0.55 5.172023968892087 9.832330691718886 2.144867618941081 1 -1 0
46 6 1 1.1 5.915846248058809 9.9908083601205 3.692960360319375 0 0 0
354 40 1 1.1 4.94530932126612 8.947718279390946 6.45608258391472 1 -1 0
242 27 2 -0.55 6.121966474893056 11.51969593536153 3.995350755663877 1 0 1
331 37 2 -0.55 4.388036987257454 12.612778435168256 5.659618708687202 -1 0 0
163 19 1 1.1 6.029165084890449 12.600781931116844 5.157495975627838 0 0 0
437 49 2 -0.55 7.168209058973895 12.429152841611481 6.329696927282103 -1 -1 0
427 48 2 -0.55 7.29006132739187 9.222413393336184 3.8330373615591977 1 0 1
36 4 2 -0.55 6.283001110801077 8.39754753653603 7.132689739990137 2 0 0
76 9 2 -0.55 1.6952776608902624 12.066528562199185 5.912018725783421 -1 0 -1
487 55 1 1.1 4.457470394153508 9.622092811739577 19.85091193693446 0 0 0
337 38 2 -0.55 9.254167453429535 7.556830820788077 4.870970603818344 0 -1 0
425 48 1 1.1 7.79306903992682 7.806741638775685 4.246870655889274 -1 0 -1
473 53 2 -0.55 11.51926066375554 8.521617452690409 5.953305220320008 -1 0 2
300 34 1 1.1 12.485395674001063 9.277369463020813 4.837362900142802 0 -1 2
546 61 2 -0.55 11.568793509239425 10.484463809873384 4.2456842889116135 -1 1 1
549 61 2 -0.55 9.629861592786046 11.9959700575145 5.302063695327762 -1 1 1
109 13 1 1.1 8.753405864011228 12.052097833287805 6.7046429669640855 0 0 0
164 19 1 1.1 10.888789370638913 11.90181399081415 4.293232582942659 1 -1 1
420 47 2 -0.55 13.123005874966106 8.007359129323353 4.078214227699878 1 0 1
544 61 2 -0.55 13.87538519442389 10.07165927189715 5.347973626566077 -2 0 1
465 52 2 -0.55 17.28887219914645 7.642825728686056 1.8526710045567862 0 -1 1
462 52 1 1.1 17.145849165512228 9.22550761932936 1.8905333835654201 -1 -1 -1
302 34 2 -0.55 17.780979355992702 9.92676506886216 3.1831384978083497 0 -1 0
211 24 2 -0.55 15.531278380362512 9.603720501096804 1.7938211332624492 1 -1 1
173 20 1 1.1 14.99455905699024 10.537208013517553 6.524280322850075 0 -1 1
195 22 2 -0.55 16.596182832564228 10.61640371960502 6.225370904580222 -2 0 0
451 51 1 1.1 14.567677562662317 10.802933987977308 1.411148121941889 0 0 1
393 44 2 -0.55 14.3885122835965 11.927682513698855 2.4972911272661658 -2 0 0
137 16 1 1.1 18.03690643286821 11.082064821004625 6.901277014621234 -1 0 -1
405 45 2 -0.55 14.589519119631342 11.955737254390304 7.010064123464955 0 -1 2
91 11 1 1.1 2.8629247132330318 13.158595748558009 5.775087637046524 1 0 0
332 37 2 -0.55 2.545510759669779 14.063862796750737 4.460873109598645 0 -1 1
168 19 2 -0.55 6.587072706842884 16.069284982614167 6.177133587470814 1 -1 1
518 58 2 -0.55 6.368582034058875 14.058945357653418 4.545831350533261 1 0 0
479 54 1 1.1 7.246083203635344 15.210393570097699 5.0660696916239605 0 -1 1
415 47 1 1.1 2.56037496452954 18.089845020815375 3.0235457818224125 1 0 1
511 57 2 -0.55 2.609437973194445 16.58636206064681 3.6178918883530597 1 -1 -1
134 15 2 -0.55 5.841088310036764 18.11724792857175 1.345396484857869 0 -1 -1
414 46 2 -0.55 2.163251753089533 18.274124274730053 1.46832707763992 -1 -1 0
202 23 2 -0.55 4.041710819302621 18.726599100130084 3.230164226618927 0 -1 1
230 26 2 -0.55 11.41002398305607 12.980418529518863 3.2724177741270997 0 1 0
266 30 2 -0.55 8.690443553486789 15.242739225540376 4.422524060868237 -2 1 1
291 33 1 1.1 9.846489805130778 16.296461542124852 3.832960237429498 0 -1 1
527 59 2 -0.55 10.95708008731281 15.570363481226815 2.995249162095849 -2 0 2
55 7 1 1.1 12.118967658654359 14.365599176126882 2.6665561363775114 0 -1 -1
144 16 2 -0.55 10.37565595992182 16.98524920907674 5.199022899619836 0 0 0
167 19 2 -0.55 9.273447363997894 17.441190287148036 2.8285539822751042 -2 -1 0
419 47 2 -0.55 12.263816476989955 14.605296017391584 1.0203942498234082 -1 1 1
148 17 2 -0.55 12.844552809238424 15.786751217559491 5.563193340318253 -2 0 1
219 25 1 1.1 10.321324840442434 18.501560232665963 5.767789724922537 -2 -1 0
406 46 1 1.1 18.839325641932092 15.328998787642556 3.926227102480585 -1 1 1
43 5 2 -0.55 13.575460086435257 14.78847904704443 3.374958921579538 0 -1 1
502 56 2 -0.55 18.07281972052308 15.264541201506558 2.344883260449985 1 -1 0
28 4 1 1.1 16.658339450829914 15.367377464298356 6.246028598320378 0 -1 0
224 25 2 -0.55 17.85861563136864 15.582118163039912 5.152845173091599 -2 0 1
469 53 1 1.1 14.036903073041644 15.884664268050818 4.4158891001229135 0 0 1
34 4 2 -0.55 15.40763313759455 15.718302835315926 5.267844282009692 0 -1 -1
157 18 2 -0.55 14.176679217411388 17.42438604773968 3.8665874424079476 -2 1 1
159 18 2 -0.55 16.33442575867726 13.8604057978202 6.828072392296695 -2 -1 0
244 28 1 1.1 17.89026161759399 15.213782342350376 19.821186451638553 -1 0 0
520 58 2 -0.55 6.186423949306413 18.576835528852754 6.357911478583985 1 0 1
556 62 2 -0.55 6.721510926603599 23.637380895101792 3.579656683260437 0 0 2
306 34 2 -0.55 6.590964791313028 19.35347977468704 3.8816335786976532 0 -1 0
442 50 1 1.1 5.4708059920866114 19.162121526299558 2.5857835509782885 0 -1 0
475 53 2 -0.55 3.490694316363111 22.565060305777184 2.5681742796837588 -1 -1 1
323 36 2 -0.55 6.279100162333972 23.485099147528143 6.258180656823674 2 -1 1
439 49 2 -0.55 5.201669085763654 20.553497892549515 1.9208029320253823 -1 -1 1
56 7 1 1.1 4.012002210693902 21.57338635311414 1.3992586081932756 -1 0 0
104 12 2 -0.55 2.6894747452647914 20.422691571138422 5.730053084515968 0 -1 -1
2 1 1 1.1 2.009647581286425 22.911829301977846 3.1817377546801753 1 -1 0
315 35 2 -0.55 7.111534141414165 21.008410674409642 6.069474262908518 1 -1 2
199 23 1 1.1 7.142196449092025 19.52199993458473 5.429093944721348 1 0 0
482 54 2 -0.55 1.9345654443158196 23.80320366646333 4.54736444684671 0 0 1
338 38 2 -0.55 6.964236380249563 22.984399251511217 0.9452965310953317 -1 -1 2
296 33 2 -0.55 2.8510978127904476 20.64012153324331 0.7757453554356282 0 1 -1
251 28 2 -0.55 11.820597222797328 23.856812477318563 1.8414064683157159 0 1 0
264 30 1 1.1 7.70114538652788 23.498842968636765 2.24850000087189 -2 0 1
57 7 1 1.1 9.717236179913213 18.84127193103388 2.185730981578133 0 -1 1
96 11 2 -0.55 8.711738601973972 18.973784586171025 5.5386431721943294 0 0 0
541 61 1 1.1 10.826924351238018 22.895311512291997 5.983857339487636 0 0 -1
283 32 2 -0.55 11.297847278823985 19.42487988553429 4.877670574875171 1 0 1
367 41 2 -0.55 11.306386243318927 19.058833769280202 2.419859332292906 0 -1 0
365 41 2 -0.55 8.975056083779267 22.644916751424102 2.863504559116346 1 0 1
73 9 1 1.1 9.293855836804406 21.497041417686013 3.7899945919290534 -1 0 0
103 12 2 -0.55 9.715800781211886 21.915430443883807 5.2670068103818535 0 0 0
257 29 2 -0.55 11.65440392961415 23.496139255858637 4.656737870636871 0 -1 1
238 27 2 -0.55 9.124245362347105 20.075923248363807 3.079854891319096 1 -1 1
326 37 1 1.1 12.011204115398817 19.983991130801723 3.5111563712068374 1 -1 1
312 35 2 -0.55 11.666057035660181 21.534959106899564 3.2130537335472957 0 0 0
190 22 1 1.1 12.233831927632723 23.068916202455522 3.2031052563150975 0 -1 0
347 39 2 -0.55 9.416723126420221 19.01662684209306 19.797830412653546 -1 -1 0
105 12 2 -0.55 18.503895428301245 21.5228442314666 3.4953977062823265 -1 -1 -1
278 31 2 -0.55 18.663686352689396 18.98236277268584 3.8949992809547904 0 1 0
328 37 2 -0.55 18.56629758972887 23.720952207066603 1.9912068617587568 0 0 0
253 29 1 1.1 15.25921428274478 23.996168797061653 2.801689837011423 -2 0 1
155 18 1 1.1 18.636551637148116 20.369450486505684 4.6810482044233845 -1 -1 1
101 12 1 1.1 14.87162568900756 18.92664408455372 3.7623356374806756 -1 -1 0
95 11 2 -0.55 15.80477089485215 19.12986611212709 2.4448526080504753 -1 1 1
567 63 2 -0.55 16.06408384982243 23.88692351989328 4.193175076192654 -2 0 0
189 21 2 -0.55 13.596313979487304 19.880139537344505 3.577218734155918 -2 -1 1
440 49 2 -0.55 15.407756966027696 19.3512247423072 5.240138776319243 -1 -1 1
74 9 1 1.1 15.870717519879921 20.656370908466894 6.125065087770303 -2 0 -1
522 58 2 -0.55 13.875812392845258 23.163673369764254 3.1938585206948846 0 -1 0
317 36 1 1.1 15.476692741423657 23.58601178383155 5.74739417310421 -1 -1 1
122 14 2 -0.55 17.393401925947494 20.71523924751498 5.640815586549681 -1 0 1
14 2 2 -0.55 15.079057803481358 22.041590756209025 5.735017447334494 -2 -1 0
79 9 2 -0.55 15.73437158637156 23.170536342878517 1.4058605623355949 -1 0 0
289 33 1 1.1 15.94531464536048 19.5572440070216 0.8152840260239652 0 0 1
203 23 2 -0.55 6.3948638025125515 0.5772160647289248 8.726635588383433 -1 -1 -1
407 46 1 1.1 3.399991849935291 -2.419836665400757 8.091672589881373 1 1 0
376 42 2 -0.55 4.757799092007649 -1.4377729970444217 8.385081609396304 0 1 0
388 44 1 1.1 5.738761376232921 -0.7272820665094809 9.465357772210506 2 0 -1
26 3 2 -0.55 7.021046981665671 -1.6246739699761423 9.876364518263186 2 0 -1
220 25 2 -0.55 2.1930465518974684 -1.7180380544307112 8.91663551468412 2 1 -1
284 32 2 -0.55 4.985272906597273 -0.4787312490997105 10.901033679798841 0 0 0
311 35 2 -0.55 3.0082862914252555 1.0930128880754502 10.698942147090673 1 0 0
426 48 1 1.1 4.227513521777834 0.6375396940364582 11.693715833956018 2 0 0
142 16 2 -0.55 3.4998213041915744 0.11935335242065642 13.120050290538968 0 1 0
123 14 2 -0.55 6.233978204937106 -2.6434056387862284 13.272687379073652 0 1 0
279 31 2 -0.55 5.243064497947014 1.905372423166752 11.82529625262096 0 0 -2
361 41 1 1.1 7.376628539038689 1.8548418927532913 8.52986240740699 0 1 1
341 38 2 -0.55 11.50629748572873 0.6919738174308722 7.609773018780935 0 0 0
321 36 2 -0.55 8.723603052670965 -1.7516358542444366 7.936402381971842 1 0 1
75 9 1 1.1 12.712584987885911 -0.10303600694999782 8.362340134782855 0 0 -1
1 1 1 1.1 8.495463465405379 -2.2436127876580927 9.485804369231515 1 0 0
71 8 2 -0.55 12.353534033945184 -1.446808239874648 9.224244592028366 2 0 -2
436 49 2 -0.55 8.918499030446874 1.4710291489492604 8.158939533397128 1 0 0
29 4 1 1.1 12.84353106838048 -2.937588271985572 9.86158843362797 0 1 -1
250 28 2 -0.55 9.559510391861602 -1.5140758299142931 10.422635732160124 0 1 -1
146 17 1 1.1 10.164473640336627 -0.5550898618666424 11.598266324537216 -1 0 -1
176 20 2 -0.55 10.868931266854103 0.751597241220782 11.048001774391224 0 0 0
375 42 2 -0.55 8.855701405227592 -0.21529350015188647 12.560603281342587 0 0 -1
114 13 2 -0.55 11.403217331025708 -1.2064434869502252 12.523997185176205 -1 1 -1
210 24 1 1.1 12.385293982159565 -2.418269117500329 12.963039698276932 0 0 -1
506 57 1 1.1 11.881577972759235 1.7907067350608903 10.440896357607972 0 1 -1
229 26 2 -0.55 13.067753323712987 1.0085403220785603 9.60655581885576 0 1 0
573 64 2 -0.55 11.397534706954598 -3.453675639303755 13.768743319943928 0 1 0
510 57 2 -0.55 12.906577087165264 -2.9673219922812857 11.513893973864464 -1 -1 1
501 56 2 -0.55 13.75573243514814 -0.632854207937619 7.196640650646992 2 0 1
4 1 2 -0.55 18.746639530343096 1.436876768347304 8.465138580464657 -1 0 -1
182 21 1 1.1 18.738975674682486 1.3521369337583091 10.103666071568664 -1 0 0
68 8 2 -0.55 14.296175968422236 -3.2445462380615027 9.06483368767942 -1 1 0
178 20 2 -0.55 16.67174919318408 -2.01716623809046 8.999731840790034 0 0 1
111 13 1 1.1 17.95932646498936 -1.2263061205372394 9.35163968735776 0 1 0
540 60 2 -0.55 17.87905397246749 -0.02042020785164561 10.329638066277859 0 0 0
452 51 1 1.1 15.869996189112674 -3.4082599937565834 8.770274255169229 -1 -1 0
521 58 2 -0.55 6.89250370578418 2.707275224880063 7.235555044040892 0 1 -1
525 59 1 1.1 2.9772087231230238 6.6236674647340035 7.44035954769225 1 0 1
292 33 2 -0.55 4.002188495364712 5.759376556616603 8.35321105046665 -1 0 1
49 6 2 -0.55 7.209926730556855 2.606686744703988 9.994109399556525 0 1 0
193 22 2 -0.55 4.8216465117069385 3.7261527470299507 9.901887489849733 0 0 0
209 24 1 1.1 3.5870788923769448 4.623954049147533 9.397304908743669 -1 1 -1
158 18 2 -0.55 2.6867822197554876 3.574788445319678 8.495729468615242 1 0 -2
129 15 1 1.1 2.088696193711341 2.523539270029596 7.352384454694376 0 0 -1
435 49 1 1.1 5.944354071995897 3.0843237026535246 10.973532117742494 0 0 1
78 9 2 -0.55 2.824200117913672 5.182768866659904 10.819324673656148 0 0 1
160 18 2 -0.55 6.409335541680419 4.2895375704837235 11.908410786148544 1 0 -1
480 54 1 1.1 2.2202129933888086 5.489833080270883 12.28130821076825 0 0 0
179 20 2 -0.55 7.28924433257851 6.445318888467019 8.444611900374646 0 1 0
411 46 2 -0.55 2.2541948687451305 7.122715347309081 12.674717312134904 0 0 0
185 21 2 -0.55 1.747079272222261 6.995633218563172 8.53723824885169 -1 0 0
175 20 2 -0.55 3.059404284215829 4.709249908581088 13.485480477140397 1 0 -1
200 23 1 1.1 7.500821035461576 5.254765077844008 12.605419185829701 0 0 1
533 60 1 1.1 10.459984212009404 1.9097404829622184 7.872473535139908 1 0 0
274 31 2 -0.55 9.56633818979224 7.0295047716288845 7.329813514956309 0 1 -1
45 5 2 -0.55 11.041111326700925 2.50736160513367 9.286590503084861 -1 1 -1
169 19 2 -0.55 12.064792322132714 5.152389037291277 8.228641826879734 -1 0 1
21 3 1 1.1 8.738205609019358 5.869742560794024 7.973441353812192 0 -1 0
519 58 2 -0.55 9.412325500414674 5.2427882356620765 9.285470294980483 0 0 0
463 52 2 -0.55 12.430549743539405 2.8447708501534055 11.484414186056773 0 0 0
141 16 2 -0.55 10.819416280034723 4.942437347025142 11.45673248386604 0 0 0
183 21 1 1.1 9.715192744724552 5.890500560752703 10.722023177640663 1 0 0
370 42 1 1.1 11.598469266507982 3.8944721759865284 12.412349071514512 1 0 0
557 62 2 -0.55 8.39991391485619 6.01085925773507 11.545736055827865 -1 -1 0
171 19 2 -0.55 10.690651163398371 2.9449283502158212 13.32934831217358 0 0 -2
348 39 2 -0.55 12.971423410055994 6.589743608377587 10.327825995633813 0 -1 0
22 3 2 -0.55 10.255730035951464 7.393485668878784 10.525735100027287 -1 0 -1
153 17 2 -0.55 8.51756619726414 4.350795645583038 13.442473506209922 -1 0 -1
31 4 2 -0.55 12.504097750184396 4.781792486151855 13.45072547863454 -1 -1 0
364 41 2 -0.55 13.624997797751748 7.036512287462825 12.934688078761182 0 0 0
235 27 1 1.1 13.327476454842698 5.8790205987108335 8.925972997982434 0 0 -1
553 62 2 -0.55 15.985990759737494 3.025078049272299 8.135047360337522 -1 1 1
432 48 2 -0.55 17.040013583184486 5.260393588255142 9.350535202751745 0 1 0
489 55 1 1.1 15.921391895961174 4.10796305212163 9.351945812723153 -1 0 1
449 50 2 -0.55 14.468031874768451 4.8034718233021305 9.237069096115967 0 0 1
290 33 1 1.1 17.430709058995774 6.82551994337087 9.108409159798368 -1 -2 1
547 61 2 -0.55 18.191070594482806 2.427391437260111 11.186612170200464 0 0 0
329 37 2 -0.55 17.918629301235537 4.854167158996475 12.297265642468853 -3 0 0
236 27 1 1.1 17.16224223246999 3.3719773685293934 11.968788882888854 0 1 -1
58 7 2 -0.55 15.990418791321348 3.4581311996885686 10.857357650687552 -1 0 0
566 63 2 -0.55 13.82679924319837 6.92679515640454 7.838778755026275 -1 1 1
249 28 2 -0.55 16.443407000333895 7.356055759202302 7.925920053984873 -1 0 0
149 17 2 -0.55 16.698155598215276 2.7204193500031004 13.451887131538275 -2 -1 1
170 19 2 -0.55 4.464149785945055 10.174426190571156 7.387313139033528 -1 -1 0
495 55 2 -0.55 1.8603057868442936 10.02959395370749 7.571418591763855 1 -1 1
299 34 1 1.1 6.748542090793964 7.945316888815316 8.652457990325145 0 0 0
19 3 1 1.1 3.202923588429963 10.429602692087181 8.338874034264162 1 0 -1
476 53 2 -0.55 3.121642143676454 11.924954200270633 8.901922495729861 2 0 -1
9 1 2 -0.55 3.4246854921696945 9.585138015022007 9.728468611590994 0 -1 -1
180 20 2 -0.55 5.542367828829034 8.168668119783733 9.706385388127677 0 -1 1
254 29 1 1.1 4.7252192672187165 9.19403775166366 10.63301428299809 0 0 0
225 25 2 -0.55 4.261899154647402 8.557445672793865 12.011651643702514 0 1 -1
517 58 2 -0.55 5.572996797528039 10.548641141136377 10.89179271431474 0 1 1
120 14 1 1.1 6.797603265983268 11.56467051909552 11.05424151367125 0 1 -1
548 61 2 -0.55 2.4217946618624673 12.727862001975753 12.197952445559052 0 0 0
226 26 1 1.1 3.103094280494326 8.559577112308624 13.107234687704025 0 0 1
392 44 2 -0.55 2.703216180148398 10.269967976006356 13.267705572634808 1 0 0
350 39 2 -0.55 6.158518800912036 13.077333502241704 11.139703139952722 -1 0 0
233 26 2 -0.55 7.9312430828303295 8.871547888752591 9.201540159299494 -1 1 0
394 44 2 -0.55 8.870204342226383 10.639093409878964 7.514116442114058 0 0 1
133 15 2 -0.55 7.844051076529567 11.329496445875758 9.872417244985932 -1 0 -1
389 44 1 1.1 8.777745396190006 10.226181456722898 9.138987395854285 0 2 1
54 6 2 -0.55 10.172589093560019 10.026467633240461 9.92997522667905 -1 0 -2
503 56 2 -0.55 12.080418138917985 8.77157357827938 11.51599253283401 0 -1 -1
281 32 1 1.1 10.5530121694295 8.93092460882844 11.088211304880645 -1 0 0
161 18 2 -0.55 9.605369779578266 9.365332111397086 12.288570865214478 -2 0 0
457 51 2 -0.55 7.619434554540557 11.188598436341445 12.438780047470127 2 -1 0
560 63 1 1.1 8.676482449933532 10.271968384808094 13.262523603289319 1 0 1
351 39 2 -0.55 11.879452514640908 12.973533205463376 12.26132484345589 0 0 0
172 20 1 1.1 15.046485693631558 7.7100193378050355 7.21469198740836 1 0 0
374 42 2 -0.55 14.82244790007226 9.260818359642396 7.496572215389601 0 0 0
398 45 1 1.1 13.346554631128148 7.689293192388149 11.449054882458716 0 2 1
275 31 2 -0.55 17.543498153805174 11.832896851997377 8.265522890049187 0 0 0
252 28 2 -0.55 15.456807156385718 12.870104361674866 9.19527081409767 1 0 0
84 10 1 1.1 16.63624671771902 11.841179214151564 9.595020614516306 0 1 0
305 34 2 -0.55 16.065887528356303 10.36952276985491 9.953561739825803 0 0 0
6 1 2 -0.55 17.22374593708081 7.906115123047136 10.345802150925637 -1 0 0
359 40 2 -0.55 17.457538908743732 12.372836845829635 10.868554900658241 -1 0 -1
467 52 2 -0.55 16.802463970178984 9.59773392412807 12.46637211545723 0 -1 -1
132 15 2 -0.55 14.766479777117352 8.439942555728303 11.095410095909354 -1 0 1
181 21 1 1.1 16.242365421995466 9.06054197010797 10.923591587123619 -1 0 0
478 54 1 1.1 6.100171772824591 17.223993634627085 7.251977704285602 -1 -1 1
528 59 2 -0.55 2.8844693055378623 13.94414787817062 7.262368160107306 0 0 1
373 42 2 -0.55 4.644006146433253 16.984605701277957 7.763532088382157 -2 1 0
460 52 1 1.1 3.076601969665438 13.541082745380814 8.806952404444806 2 -1 1
116 13 2 -0.55 4.496306894146673 14.14416903989358 9.376850551004273 1 0 0
345 39 1 1.1 3.5091626070084163 17.67773019351401 8.720988893890809 -1 0 0
448 50 2 -0.55 4.0660003483919684 17.76658295866376 10.266705031373677 0 0 -1
446 50 2 -0.55 7.2472202765290366 17.28729663314742 8.37428301955067 1 -1 0
194 22 2 -0.55 1.9486716263626775 14.076003764521674 9.853379761502566 0 -1 0
39 5 1 1.1 5.687746954925072 14.466073755171768 10.37185621807998 -1 0 0
12 2 1 1.1 4.248704335316201 16.8589064115925 11.74168749938322 1 -1 0
69 8 2 -0.55 2.824074445086341 16.199265901940663 11.963557294357956 0 -1 -1
346 39 2 -0.55 5.264467773287841 15.682165466237025 11.384032634536199 0 -1 1
468 52 2 -0.55 4.6071210915929806 17.78128885561039 13.032446476066413 0 -1 0
564 63 2 -0.55 2.0130785462259553 16.923395061641955 8.852962809044437 0 1 2
575 64 2 -0.55 7.007389368298718 14.98623727183576 9.565712378537183 1 -1 1
131 15 2 -0.55 9.260913425795474 13.149276035524792 7.7461415973996814 1 1 0
412 46 2 -0.55 11.394697654479234 14.433216560486555 7.399823089682333 0 1 -1
352 40 1 1.1 12.690432275721248 15.379988116930845 7.138901680516195 -1 0 0
536 60 2 -0.55 10.82238726944734 14.049174051639552 10.054773593413218 0 -1 2
488 55 1 1.1 10.199134211563534 14.320311351020072 8.454809869142634 0 -1 -1
399 45 1 1.1 8.029939317585193 16.194463341378313 9.342909721411113 -1 0 0
60 7 2 -0.55 9.307970907020264 15.627443012328664 8.576363641073238 -1 -1 -2
431 48 2 -0.55 8.497161507704826 16.9006772869912 10.685400891637048 1 -1 1
417 47 1 1.1 11.64926207617604 17.901625584881288 8.660468848284415 -1 0 -1
232 26 2 -0.55 10.964579512714447 17.353236310107622 10.035073839311377 -1 -1 -1
565 63 2 -0.55 12.586459440029909 16.764310800007124 7.995944589642813 0 1 0
532 60 1 1.1 9.830790809080106 17.65175803355871 11.16920996139593 0 0 1
429 48 2 -0.55 10.114002318170321 14.815121663681602 12.553736649570657 0 0 0
379 43 1 1.1 11.313261257225834 14.381153110197399 11.61626783807143 1 0 -1
355 40 2 -0.55 12.50637525503043 15.415951242741203 12.085822240594213 0 0 1
256 29 2 -0.55 9.911500419415837 17.26513235753822 12.792018275771564 0 -1 2
267 30 2 -0.55 10.635513898967112 18.453865724296367 7.358028866812443 0 0 0
551 62 1 1.1 18.539616176466687 13.52893376890854 11.285609074868164 0 0 0
234 26 2 -0.55 16.908798530261244 16.192127481030717 7.678906001070107 -1 -1 1
128 15 1 1.1 15.05643189015961 13.314959304564379 7.687735877120739 0 0 -1
368 41 2 -0.55 13.991706264600618 14.514143634156117 7.5868652320912044 -3 1 0
453 51 1 1.1 17.582001523170867 16.927541290571128 8.975024780109521 -1 -2 0
285 32 2 -0.55 16.97614016760508 16.304369027788155 10.375125436358456 1 0 1
569 64 1 1.1 16.849338779464222 15.955848794077207 11.957640177821807 -1 0 0
538 60 2 -0.55 17.655998767345846 14.585867337107372 12.130159157405936 1 1 0
268 30 2 -0.55 15.241656794005543 15.673957504207365 12.434372210126426 -1 1 0
498 56 1 1.1 13.829518250031851 15.395974450006458 13.157281039701921 0 -2 -1
472 53 2 -0.55 17.351737775509157 17.201836968011307 13.021982141451018 -1 -1 0
61 7 2 -0.55 17.097337310195716 18.424690932940972 8.905771193317626 0 -1 0
372 42 1 1.1 6.251461278432927 22.004524315600722 7.052285200335961 -1 -1 -1
52 6 2 -0.55 3.6086038221849313 23.806438439156832 8.81351219712392 1 0 -1
112 13 2 -0.55 4.729154438979137 21.30374593239744 7.129371606146353 2 -1 -2
40 5 2 -0.55 3.2939531904093187 19.1409496018495 8.084430719517798 -2 0 1
271 31 1 1.1 3.221620806621599 20.594539952042663 7.2804035511058105 1 0 0
293 33 2 -0.55 2.407966360273672 21.633453022033475 8.142724657865886 1 -1 1
50 6 2 -0.55 6.693868285750542 22.17070708504539 8.621275811663017 -1 0 0
461 52 1 1.1 2.8983648535607727 22.491911549452414 9.447440948274165 1 -1 1
18 2 2 -0.55 6.737433173000537 23.103407098510377 11.530584157956188 2 0 0
124 14 2 -0.55 3.895891280001105 21.6507068861712 10.384837658625043 -1 0 -1
138 16 1 1.1 7.004891179151668 23.609950600883945 13.126557460521102 1 -1 0
48 6 1 1.1 7.4652723937987835 22.578726347969663 10.166373068964873 0 -1 -2
313 35 2 -0.55 11.628245283132898 22.200152490634828 7.257310443408775 1 0 2
5 1 2 -0.55 8.662967278140135 23.905290174511094 13.313420433682243 0 -1 0
386 43 2 -0.55 8.46905817009682 23.80389380265985 9.718163653040868 0 -1 0
497 56 1 1.1 11.740197750398783 22.213047345183167 8.877641669801827 0 -1 1
413 46 2 -0.55 10.628384157824337 21.31721045371361 9.688334727009298 -1 0 -1
545 61 2 -0.55 12.715652757334919 19.048064975569204 8.905189123114232 -1 0 1
340 38 2 -0.55 11.741334255066493 23.666984345935987 9.433964196107247 0 -1 -1
391 44 2 -0.55 9.573729220164065 19.231870520342575 11.072709053322683 0 0 1
90 10 2 -0.55 8.307508400898334 21.315142550001745 10.74641862598098 2 0 1
237 27 1 1.1 9.77340648038749 20.83206262777641 10.99809101668937 0 0 1
314 35 2 -0.55 10.429178110340624 21.407192126420924 12.37742127723538 0 -1 -1
395 44 2 -0.55 12.843109512565208 19.755233693001966 11.464968456062854 0 -1 1
383 43 2 -0.55 13.126911984063128 21.49490350267418 9.40358574947955 0 -1 1
438 49 2 -0.55 16.184260906501574 23.827906919167013 7.249112547482737 0 -1 0
387 43 2 -0.55 15.838016685550064 20.381620402294853 7.713161905896377 -3 0 1
186 21 2 -0.55 17.332805698066643 20.791225945161987 10.037706928790298 -2 -1 1
335 38 1 1.1 16.349638766649456 19.819796866610012 9.158243993966757 0 -1 0
121 14 2 -0.55 1.6951740085432205 22.95183833097527 10.35828173292053 0 -1 -1
297 33 2 -0.55 16.35456489584638 23.15497773188671 9.87677345848102 0 -1 0
118 14 1 1.1 17.492933584946787 22.27972070467822 10.666468268140349 0 0 0
277 31 2 -0.55 14.99917262301148 19.70984646736894 10.006481207764057 0 0 0
363 41 1 1.1 13.386650667900277 20.0000570900693 9.991163118289283 -1 -1 1
484 54 2 -0.55 17.235213159329607 22.16644347611678 12.32272976119921 -1 0 -1
156 18 1 1.1 1.8267315057331281 -3.251895516136366 19.770783702238695 1 0 -1
353 40 1 1.1 6.038091588789549 -1.6169586756600698 14.498383320858167 -1 1 0
490 55 2 -0.55 4.472916158166167 -1.5124602019716817 14.854004158993158 1 0 1
316 36 1 1.1 3.262315936293836 -0.4192961811426453 14.707362456145919 0 -1 0
53 6 2 -0.55 6.641057533460199 -0.14775008448673607 14.021095015935522 0 1 -2