ITEM: TIMESTEP
0
ITEM: NUMBER OF ATOMS
576
ITEM: BOX BOUNDS pp pp pp
1.6813298824966569e+00 1.8904247829103532e+01
-3.5304513441954359e+00 2.4116029055818959e+01
2.2102403977274676e+00 1.8375337313871256e+01
ITEM: ATOMS id type xs ys zs
377 2 0.161558 0.143696 0.211938
165 1 0.161335 0.0877115 0.182273
421 2 0.18986 0.0875049 0.0864842
81 2 0.212761 0.0582438 0.243417
385 2 0.0734396 0.0671308 0.18139
542 1 0.276963 0.0151076 0.237128
410 2 0.0312051 0.174392 0.16845
208 1 0.109633 0.190458 0.214739
261 2 0.274765 0.183808 0.104524
80 2 0.0508446 0.0446576 0.332471
203 2 0.272129 0.157159 0.389959
407 1 0.0938481 0.0462986 0.421244
376 2 0.16265 0.0883233 0.418207
388 1 0.241738 0.114401 0.449661
26 2 0.307838 0.0755905 0.467398
147 1 0.00694576 0.0448828 0.24059
220 2 0.0348881 0.061539 0.493653
4 2 0.00350822 0.175449 0.418501
556 2 0.288759 0.00165473 0.139278
248 2 0.360935 0.0371089 0.263348
380 1 0.341442 0.158976 0.0516964
360 2 0.375806 0.109259 0.0785039
327 1 0.445034 0.0496282 0.296064
33 2 0.492962 0.0867649 0.236657
534 1 0.5556 0.105784 0.170372
51 2 0.523707 0.0897134 0.0792711
44 2 0.639087 0.0798925 0.177231
280 1 0.442604 0.0737566 0.0401711
358 2 0.565326 0.162685 0.167054
294 2 0.421988 0.0208233 0.0629859
341 2 0.549558 0.160104 0.353084
321 2 0.435687 0.0757479 0.382524
75 1 0.621096 0.127138 0.392951
1 1 0.39758 0.0557096 0.469687
71 2 0.600516 0.0786257 0.442203
229 2 0.645975 0.167175 0.467031
509 2 0.58062 0.185355 0.0127759
29 1 0.65001 0.0394598 0.498632
436 2 0.413657 0.198123 0.385097
32 2 0.49397 0.00153552 0.320495
221 2 0.4101 0.199545 0.0477792
184 2 0.984621 0.14551 0.016328
125 2 0.717576 0.0188521 0.272615
501 2 0.682714 0.111547 0.322077
119 1 0.704374 0.0761849 0.247179
558 2 0.78709 0.0930536 0.210472
559 1 0.864618 0.12085 0.223766
458 2 0.934835 0.0837305 0.250656
140 2 0.890034 0.147353 0.13752
246 1 0.964554 0.175063 0.0970149
494 2 0.853453 0.164336 0.28597
265 2 0.765737 0.0490131 0.0619843
68 2 0.737631 0.0294085 0.452643
452 1 0.826912 0.0124855 0.435641
178 2 0.884944 0.0578496 0.458497
481 2 0.694315 0.12806 0.01155
206 2 0.0921188 0.213483 0.302485
10 1 0.204959 0.223512 0.0821959
97 2 0.145693 0.230982 0.156378
525 1 0.0384153 0.37375 0.281123
507 1 0.243561 0.329058 0.105483
422 2 0.264919 0.315461 0.202494
301 2 0.23767 0.277724 0.0578029
139 2 0.16745 0.361369 0.0931479
433 1 0.103442 0.381901 0.0276701
521 2 0.298622 0.232685 0.292057
562 2 0.021014 0.359022 0.0580394
292 2 0.0849351 0.334983 0.337925
49 2 0.298791 0.24755 0.448465
193 2 0.175225 0.312587 0.461482
209 1 0.087161 0.316273 0.431001
158 2 0.0410927 0.264923 0.42071
129 1 0.0146526 0.223403 0.359105
403 2 0.312627 0.359433 0.0634636
179 2 0.332435 0.356749 0.437632
361 1 0.319349 0.207516 0.376599
36 2 0.222952 0.395274 0.354943
20 1 0.331913 0.279047 0.241436
533 1 0.504045 0.211212 0.365711
390 1 0.587764 0.207933 0.105045
526 2 0.382102 0.263756 0.161682
263 1 0.435334 0.25253 0.0795792
409 2 0.525688 0.249689 0.106884
288 2 0.529151 0.338494 0.220928
344 1 0.472665 0.382958 0.243017
424 1 0.568649 0.29611 0.280084
126 2 0.379349 0.305679 0.312608
274 2 0.450165 0.381606 0.338148
188 2 0.513876 0.248832 0.29356
45 2 0.552353 0.235224 0.444941
169 2 0.598334 0.325492 0.359761
21 1 0.406833 0.34032 0.388068
519 2 0.457723 0.316785 0.460065
337 2 0.396509 0.383027 0.183284
41 2 0.649325 0.272328 0.243732
445 2 0.420631 0.290871 0.0041867
348 2 0.653754 0.36643 0.494234
235 1 0.67356 0.351054 0.400683
349 2 0.979051 0.35127 0.214067
247 2 0.675772 0.224032 0.11713
115 2 0.943151 0.229743 0.0746421
83 1 0.851124 0.221808 0.293154
441 2 0.797652 0.249201 0.223857
334 1 0.946967 0.358213 0.117767
310 2 0.715053 0.319764 0.12915
42 2 0.893504 0.316606 0.0801984
37 1 0.715572 0.265523 0.176527
571 2 0.944743 0.235084 0.300752
343 1 0.719837 0.380057 0.134353
553 2 0.823247 0.240897 0.382325
432 2 0.898937 0.327423 0.409516
489 1 0.828444 0.290315 0.434927
449 2 0.748629 0.318839 0.4048
290 1 0.915468 0.385096 0.40454
568 1 0.906031 0.270418 0.0150033
185 2 0.989517 0.397041 0.355825
401 2 0.775895 0.390605 0.214438
566 2 0.69519 0.399992 0.347346
216 2 0.745706 0.397662 0.0447136
299 1 0.276217 0.401174 0.43763
89 2 0.104399 0.411789 0.251553
499 2 0.251953 0.447046 0.227057
357 2 0.189197 0.494028 0.106928
46 1 0.27033 0.482539 0.149997
354 1 0.184648 0.432408 0.289666
76 2 0.0297034 0.556316 0.24261
242 2 0.298158 0.534821 0.178355
331 2 0.182825 0.583829 0.248049
163 1 0.269738 0.58671 0.212136
170 2 0.163758 0.477771 0.343937
19 1 0.0992862 0.49385 0.408275
476 2 0.116558 0.55008 0.435111
495 2 0.0152683 0.493697 0.364037
487 1 0.148052 0.48694 0.0207161
423 2 0.0994583 0.438896 0.0287836
91 1 0.0923528 0.599184 0.245038
485 2 0.0946431 0.533299 0.00596616
233 2 0.329147 0.449766 0.428467
9 2 0.106268 0.461409 0.491701
427 2 0.334245 0.456034 0.0946832
425 1 0.372453 0.401215 0.092406
259 2 0.450074 0.404283 0.0402516
133 2 0.35922 0.533914 0.497136
473 2 0.513088 0.434133 0.222655
300 1 0.590402 0.458281 0.191885
546 2 0.562195 0.496317 0.120119
549 2 0.456974 0.553692 0.198372
109 1 0.415907 0.562482 0.288366
23 2 0.463753 0.55104 0.042862
164 1 0.517232 0.547484 0.122893
394 2 0.388534 0.513679 0.334075
544 2 0.62641 0.494435 0.262015
420 2 0.643976 0.415103 0.159486
389 1 0.390281 0.493533 0.427134
54 2 0.475991 0.477747 0.454416
230 2 0.57748 0.59201 0.121479
437 2 0.340385 0.597182 0.27872
131 2 0.475638 0.589605 0.346831
249 2 0.844887 0.409463 0.352606
465 2 0.910054 0.413134 0.108317
27 2 0.965455 0.501167 0.0703041
137 1 0.968449 0.519063 0.285704
172 1 0.76977 0.421571 0.299561
374 2 0.763351 0.478011 0.279372
462 1 0.905479 0.470359 0.129335
302 2 0.936459 0.479161 0.222919
211 2 0.819268 0.490702 0.10609
173 1 0.706593 0.522927 0.262529
195 2 0.722571 0.54772 0.174177
451 1 0.783424 0.545781 0.0970135
405 2 0.713271 0.564233 0.334886
275 2 0.896686 0.541125 0.33993
252 2 0.815116 0.589559 0.4393
84 1 0.877824 0.547782 0.438381
393 2 0.854449 0.581083 0.107305
305 2 0.841521 0.497176 0.47602
135 2 0.744155 0.556666 0.00559409
6 2 0.904692 0.409942 0.493428
359 2 0.951405 0.561773 0.491872
332 2 0.0798805 0.634903 0.167391
478 1 0.23779 0.737123 0.291751
168 2 0.25139 0.72207 0.192649
518 2 0.279933 0.629365 0.142244
479 1 0.303902 0.684019 0.142286
415 1 0.0517117 0.783701 0.140818
373 2 0.148512 0.736146 0.314942
520 2 0.275999 0.790686 0.309009
528 2 0.0799727 0.6216 0.337684
460 1 0.106889 0.607481 0.428526
116 2 0.195444 0.626463 0.440159
345 1 0.089558 0.753522 0.38998
448 2 0.106107 0.724871 0.474221
446 2 0.288465 0.696485 0.341159
511 2 0.0479904 0.726685 0.151647
134 2 0.22094 0.781443 0.0353724
406 1 0.0092501 0.673072 0.143824
414 2 0.0310557 0.795494 0.0469612
575 2 0.338326 0.65362 0.474199
266 2 0.390571 0.69583 0.157686
291 1 0.472418 0.717965 0.133878
527 2 0.52677 0.679421 0.0934239
55 1 0.596082 0.642306 0.0794052
144 2 0.518083 0.743919 0.210749
167 2 0.451409 0.7636 0.0736263
412 2 0.57942 0.664276 0.324048
536 2 0.536783 0.635771 0.463906
488 1 0.507766 0.642258 0.371926
399 1 0.357424 0.694333 0.408348
60 2 0.437404 0.679646 0.362431
431 2 0.370414 0.744682 0.45669
417 1 0.589642 0.777398 0.425747
232 2 0.520921 0.753034 0.476953
565 2 0.652857 0.73907 0.397513
352 1 0.658642 0.692934 0.339588
219 1 0.513234 0.79704 0.252716
564 2 0.999255 0.746285 0.363933
43 2 0.670456 0.667585 0.117955
128 1 0.76625 0.611014 0.362053
148 2 0.695949 0.712749 0.253006
502 2 0.973549 0.662206 0.0531039
28 1 0.862378 0.674884 0.245081
224 2 0.9481 0.667537 0.21717
469 1 0.723838 0.70821 0.156355
34 2 0.814579 0.692675 0.161447
157 2 0.721403 0.76073 0.117898
159 2 0.822254 0.62887 0.284769
234 2 0.863154 0.722609 0.306819
368 2 0.71561 0.657194 0.384628
453 1 0.907322 0.740487 0.389766
61 2 0.876344 0.786992 0.436454
285 2 0.896394 0.696329 0.458944
52 2 0.125136 0.992266 0.443322
202 2 0.138237 0.8055 0.16262
306 2 0.291354 0.821174 0.163145
442 1 0.214315 0.818788 0.112085
475 2 0.109273 0.942553 0.117218
323 2 0.248546 0.96804 0.284914
439 2 0.200651 0.871735 0.0735925
56 1 0.135243 0.909068 0.0416496
104 2 0.0338188 0.876833 0.30681
112 2 0.182275 0.885386 0.331209
372 1 0.261847 0.915096 0.33022
40 2 0.10251 0.812677 0.396464
271 1 0.104434 0.86987 0.37506
293 2 0.0955191 0.899224 0.457766
50 2 0.291734 0.927664 0.423154
2 1 0.0217126 0.952238 0.136718
315 2 0.327106 0.881767 0.283012
461 1 0.079807 0.95159 0.49446
199 1 0.329923 0.825753 0.254376
338 2 0.317609 0.956761 0.00771338
386 2 0.396822 0.99642 0.468043
267 2 0.552412 0.8006 0.341729
251 2 0.59029 0.993936 0.0282507
264 1 0.358449 0.981477 0.0836183
57 1 0.468099 0.816023 0.0401163
96 2 0.41927 0.810681 0.261532
541 1 0.544722 0.957312 0.286424
283 2 0.573562 0.833764 0.196014
367 2 0.562555 0.821971 0.0354213
365 2 0.40372 0.944179 0.147359
73 1 0.445817 0.896939 0.175489
103 2 0.490415 0.912108 0.258949
257 2 0.57746 0.97836 0.199421
238 2 0.441237 0.853172 0.114092
326 1 0.600164 0.853946 0.107091
312 2 0.574837 0.910448 0.0998744
190 1 0.611703 0.96386 0.112568
313 2 0.603797 0.941519 0.363476
497 1 0.602108 0.936599 0.465308
413 2 0.524647 0.903057 0.483989
545 2 0.630983 0.816926 0.489594
48 1 0.336536 0.954774 0.496378
340 2 0.604473 0.988228 0.497535
391 2 0.426771 0.827438 0.499184
482 2 0.998776 0.989675 0.211571
278 2 0.987158 0.810033 0.20288
328 2 0.991172 0.972075 0.048207
253 1 0.78458 0.992634 0.0880691
438 2 0.841431 0.996912 0.341839
105 2 0.982488 0.900693 0.158255
155 1 0.970849 0.863423 0.236733
101 1 0.757279 0.815001 0.125923
95 2 0.835301 0.823502 0.0726354
567 2 0.830745 0.989589 0.173656
189 2 0.692479 0.851195 0.0932447
440 2 0.769206 0.826731 0.221177
74 1 0.795524 0.868572 0.282144
522 2 0.703939 0.964167 0.115288
317 1 0.789492 0.982867 0.261317
122 2 0.886955 0.87426 0.270887
14 2 0.764607 0.924628 0.266437
387 2 0.779833 0.851896 0.377489
186 2 0.897888 0.88014 0.454494
335 1 0.835704 0.837249 0.452771
79 2 0.81823 0.964472 0.0096464
121 2 0.99057 0.958859 0.472931
297 2 0.846533 0.966911 0.49248
276 2 0.0843625 0.0419241 0.998585
218 1 0.165542 0.0693458 0.994922
284 2 0.220944 0.141302 0.533982
311 2 0.0757897 0.166655 0.569423
426 1 0.164379 0.181239 0.573562
123 2 0.26708 0.022111 0.700653
353 1 0.262511 0.0638967 0.772427
490 2 0.172513 0.0665071 0.790808
316 1 0.0993725 0.0987479 0.787924
53 2 0.294662 0.114674 0.734011
322 2 0.170349 0.1166 0.935169
554 2 0.230055 0.0316998 0.968332
466 2 0.0996615 0.155284 0.790013
576 2 0.0238709 0.0816696 0.739126
508 2 0.303926 0.156264 0.959659
245 1 0.216613 0.167768 0.928748
142 2 0.196607 0.190796 0.671581
308 1 0.161414 0.198406 0.762997
166 2 0.325789 0.0535438 0.842988
222 2 0.220961 0.194676 0.840544
156 1 0.00298039 0.0139648 0.974422
250 2 0.451703 0.0769029 0.543804
146 1 0.480857 0.124983 0.590676
176 2 0.513654 0.164159 0.528984
375 2 0.412628 0.14719 0.645172
114 2 0.554289 0.11304 0.652306
210 1 0.610965 0.0684528 0.669082
38 1 0.379814 0.137239 0.736015
428 2 0.61644 0.121765 0.880238
402 2 0.433718 0.0982081 0.780662
47 1 0.418693 0.0569252 0.848981
447 2 0.44728 0.0767463 0.941037
464 2 0.603122 0.0212416 0.869821
82 1 0.640201 0.15949 0.951348
573 2 0.556692 0.0204115 0.679083
204 2 0.393201 0.188686 0.787015
260 2 0.451952 0.00944636 0.80505
64 1 0.649719 0.0701293 0.854529
5 2 0.403947 0.00157809 0.651372
563 2 0.665561 0.0722653 0.75318
510 2 0.666783 0.061258 0.589948
454 2 0.940637 0.0564285 0.987527
523 1 0.761978 0.0896661 0.989536
98 2 0.840678 0.120702 0.971574
182 1 0.994123 0.172008 0.5221
111 1 0.947163 0.0669485 0.526496
540 2 0.94201 0.125232 0.549004
117 2 0.929042 0.0323094 0.603651
514 1 0.876273 0.0178321 0.681889
397 1 0.930371 0.111648 0.959569
574 2 0.730881 0.0639041 0.904767
516 1 0.941459 0.101742 0.768305
8 2 0.952797 0.116772 0.864006
25 2 0.879487 0.0582098 0.749417
67 2 0.918934 0.151836 0.721706
223 2 0.699127 0.199036 0.908811
435 1 0.230577 0.273887 0.503452
205 2 0.171778 0.204141 0.994985
78 2 0.0487853 0.344327 0.50885
279 2 0.173356 0.230592 0.527043
160 2 0.272624 0.293708 0.591204
175 2 0.109132 0.319417 0.655013
474 2 0.113565 0.366549 0.931149
15 2 0.115289 0.246894 0.755992
272 1 0.116695 0.304204 0.750769
145 1 0.272324 0.347452 0.816305
378 2 0.186798 0.324197 0.802101
381 1 0.0582218 0.375462 0.852978
330 2 0.298508 0.347396 0.720628
555 2 0.0411053 0.322712 0.805473
480 1 0.0344705 0.345503 0.607797
295 2 0.327842 0.317167 0.874915
411 2 0.022209 0.398843 0.646656
506 1 0.585499 0.201592 0.514124
200 1 0.338005 0.313403 0.652953
463 2 0.616396 0.22773 0.596271
141 2 0.536446 0.306622 0.603829
183 1 0.478886 0.339637 0.55022
370 1 0.583144 0.265909 0.658391
557 2 0.400292 0.344599 0.603244
153 2 0.37887 0.269279 0.705172
171 2 0.523383 0.236454 0.719614
318 1 0.437678 0.239563 0.76294
543 1 0.415339 0.307641 0.908385
450 2 0.45157 0.265677 0.850464
504 2 0.460124 0.357947 0.898273
31 2 0.641379 0.300814 0.709386
455 2 0.612633 0.375365 0.803363
22 2 0.501711 0.394855 0.531334
364 2 0.656502 0.390122 0.649712
298 1 0.665962 0.355621 0.729479
324 2 0.828764 0.201128 0.82836
136 1 0.896033 0.205548 0.75619
333 2 0.826911 0.246631 0.980548
547 2 0.949156 0.220211 0.55063
329 2 0.96071 0.308249 0.622519
236 1 0.903425 0.262826 0.599055
58 2 0.838875 0.281849 0.53378
531 2 0.754412 0.280923 0.855717
149 2 0.864566 0.239565 0.683184
325 1 0.776012 0.229124 0.8969
7 2 0.964577 0.238825 0.796111
187 2 0.81472 0.359613 0.915106
30 1 0.963268 0.292144 0.835517
152 2 0.886778 0.321071 0.79958
362 1 0.800318 0.330282 0.827689
215 2 0.960531 0.285268 0.937765
214 2 0.75625 0.357694 0.758341
382 2 0.975694 0.394535 0.874391
228 1 1.04624e-05 0.523157 0.9861
17 2 0.277728 0.404413 0.845214
180 2 0.227518 0.409802 0.52104
493 2 0.0946853 0.413664 0.789364
254 1 0.177338 0.454086 0.555747
225 2 0.149831 0.445692 0.648202
517 2 0.228071 0.503864 0.548277
120 1 0.299978 0.539421 0.569409
515 1 0.0340801 0.548927 0.724113
226 1 0.0725671 0.438559 0.700755
392 2 0.0347338 0.491269 0.717848
459 2 0.211252 0.486024 0.948145
262 1 0.263002 0.526881 0.90529
396 2 0.215388 0.572112 0.878064
535 2 0.126679 0.563711 0.746874
404 2 0.305515 0.500301 0.831693
350 2 0.263339 0.592989 0.572411
548 2 0.0195984 0.574383 0.636903
217 1 0.174836 0.599525 0.802716
207 2 0.332565 0.54542 0.963993
561 1 0.342491 0.445829 0.828194
552 1 0.467526 0.411075 0.94679
503 2 0.611132 0.454968 0.536514
281 1 0.520044 0.452877 0.531511
161 2 0.476828 0.473165 0.61174
457 2 0.347314 0.517691 0.648411
87 2 0.555986 0.428161 0.933372
560 1 0.417046 0.489338 0.686609
258 2 0.402294 0.444377 0.905833
16 2 0.389506 0.443233 0.74219
470 1 0.617115 0.421956 0.861119
127 1 0.412311 0.575918 0.971141
63 2 0.462364 0.57525 0.888846
239 2 0.465901 0.522683 0.751677
154 1 0.47278 0.576443 0.79121
62 2 0.608309 0.465823 0.798924
550 1 0.61927 0.594971 0.693791
77 2 0.649027 0.540713 0.701818
398 1 0.671958 0.410445 0.555046
213 2 0.98548 0.484781 0.911277
85 2 0.980008 0.570899 0.796616
416 1 0.675812 0.502634 0.770924
307 1 0.778219 0.40885 0.955432
530 2 0.970435 0.573406 0.953568
467 2 0.860605 0.455182 0.626441
356 2 0.705184 0.426618 0.900049
132 2 0.757346 0.426642 0.532405
181 1 0.843424 0.448211 0.530531
177 2 0.848675 0.538458 0.698562
491 2 0.897541 0.455921 0.784523
212 2 0.852731 0.447569 0.939759
102 1 0.926484 0.44526 0.876182
227 1 0.842472 0.480872 0.712901
477 2 0.753689 0.472627 0.738003
496 1 0.753932 0.570161 0.907346
319 2 0.700301 0.531653 0.853496
486 2 0.84269 0.562362 0.879491
110 1 0.923732 0.588257 0.873013
194 2 0.0559624 0.625648 0.503469
39 1 0.257849 0.637833 0.51191
12 1 0.149507 0.72153 0.563332
69 2 0.0988697 0.702847 0.636259
346 2 0.22792 0.687147 0.556407
468 2 0.180236 0.774919 0.584689
408 1 0.244131 0.746215 0.959733
196 2 0.245342 0.627183 0.750761
524 1 0.108281 0.691619 0.88675
243 2 0.0266716 0.704755 0.932043
456 2 0.117632 0.639482 0.844958
94 2 0.18032 0.701515 0.949537
270 2 0.108954 0.730166 0.813823
371 1 0.058895 0.778269 0.794956
143 2 0.240929 0.775859 0.875448
505 1 0.330895 0.648116 0.758897
572 2 0.322309 0.721592 0.987702
351 2 0.570046 0.603424 0.610905
303 2 0.336641 0.670264 0.855976
130 2 0.555899 0.601413 0.769535
529 2 0.396359 0.632819 0.990347
35 2 0.397532 0.606201 0.754966
419 2 0.607822 0.640235 0.981655
532 1 0.434205 0.769429 0.513787
429 2 0.467926 0.67023 0.592658
379 1 0.549089 0.649927 0.556707
355 2 0.620473 0.686168 0.577512
256 2 0.429189 0.755898 0.609735
66 1 0.435905 0.707312 0.662487
483 2 0.353035 0.690389 0.694656
192 1 0.380862 0.684402 0.939729
513 2 0.464871 0.704028 0.912771
339 2 0.492326 0.70853 0.743103
287 2 0.608905 0.699977 0.858817
3 1 0.523443 0.72247 0.834796
369 2 0.519334 0.780298 0.843287
151 2 0.372339 0.790542 0.816289
309 1 0.663455 0.666964 0.919656
551 1 0.989593 0.600991 0.554428
13 2 0.688029 0.634903 0.686171
569 1 0.87615 0.687998 0.555933
538 2 0.919999 0.638363 0.582305
268 2 0.781411 0.684609 0.572948
498 1 0.699414 0.683024 0.630164
472 2 0.917609 0.732052 0.60453
244 1 0.944801 0.683521 0.961103
500 2 0.703826 0.729014 0.688329
24 2 0.718457 0.623919 0.883129
286 2 0.875389 0.72069 0.970702
150 2 0.720649 0.707647 0.96343
384 2 0.914847 0.645391 0.886973
570 1 0.796754 0.733633 0.922961
107 2 0.975231 0.763571 0.758687
336 1 0.756552 0.760215 0.748059
282 1 0.921808 0.774498 0.672637
99 2 0.792279 0.726281 0.821761
418 2 0.831293 0.778903 0.700085
231 2 0.790905 0.790327 0.93046
108 2 0.00119933 0.998199 0.880689
492 2 0.258115 0.807563 0.7131
296 2 0.0653374 0.879989 0.99524
86 2 0.171291 0.94614 0.974023
197 2 0.108818 0.80595 0.724828
198 2 0.0572311 0.809525 0.880583
174 1 0.285751 0.810756 0.80997
444 1 0.17902 0.811423 0.659278
18 2 0.281108 0.9779 0.564386
124 2 0.0989798 0.95299 0.594831
539 2 0.167634 0.868049 0.630333
273 1 0.118255 0.9135 0.668421
100 1 0.24789 0.976088 0.946419
320 2 0.166527 0.928535 0.752193
430 2 0.270874 0.963153 0.854044
93 1 0.254642 0.920388 0.78737
537 2 0.274884 0.867642 0.830589
304 2 0.0343564 0.897111 0.699841
92 1 0.0199767 0.83155 0.967011
106 2 0.307564 0.933053 0.710247
138 1 0.315282 0.980741 0.65509
65 1 0.477379 0.995244 0.710599
90 2 0.385214 0.913315 0.546687
471 1 0.446054 0.818712 0.855352
72 2 0.534846 0.939918 0.91182
237 1 0.458004 0.877172 0.539731
314 2 0.490905 0.861246 0.63093
434 1 0.600455 0.975141 0.933594
366 2 0.592237 0.867868 0.759733
400 2 0.500033 0.938864 0.71022
191 1 0.509802 0.882095 0.725707
269 2 0.451134 0.866615 0.796394
347 2 0.430171 0.826879 0.953399
383 2 0.676141 0.9056 0.500601
118 1 0.916679 0.928838 0.503721
395 2 0.668183 0.842538 0.63526
443 1 0.677557 0.856245 0.731223
59 2 0.685014 0.950491 0.928496
289 1 0.83924 0.832214 0.974986
88 2 0.793055 0.881785 0.945305
277 2 0.78247 0.835864 0.535442
113 2 0.70804 0.807715 0.774094
363 1 0.687643 0.851497 0.540006
484 2 0.92651 0.916652 0.599561
342 2 0.928133 0.835204 0.946888
162 2 0.951552 0.827023 0.640914
255 1 0.948849 0.881579 0.674319
241 2 0.827495 0.972228 0.689574
70 2 0.733261 0.903121 0.73834
11 1 0.777046 0.938253 0.93096
512 2 0.818744 0.951481 0.843522
201 1 0.81729 0.926145 0.752152
240 2 0.885982 0.889637 0.746127
ITEM: TIMESTEP
1000
ITEM: NUMBER OF ATOMS
576
ITEM: BOX BOUNDS pp pp pp
1.6813298824966569e+00 1.8904247829103532e+01
-3.5304513441954359e+00 2.4116029055818959e+01
2.2102403977274676e+00 1.8375337313871256e+01
ITEM: ATOMS id type xs ys zs
377 2 0.159871 0.14173 0.223757
165 1 0.161254 0.0892219 0.181837
421 2 0.187162 0.0929821 0.0845409
81 2 0.213725 0.0545341 0.238995
385 2 0.0733398 0.0718085 0.183977
542 1 0.275046 0.0126301 0.227541
410 2 0.0253208 0.171506 0.175065
208 1 0.106041 0.187791 0.216974
261 2 0.271142 0.187049 0.0994952
80 2 0.0412619 0.0430455 0.3342
203 2 0.275033 0.153243 0.383431
407 1 0.0914113 0.0463092 0.416422
376 2 0.159516 0.0870782 0.407663
388 1 0.236653 0.113795 0.442223
26 2 0.300806 0.0733423 0.464528
147 1 0.00903075 0.0477571 0.242882
220 2 0.0297758 0.0613823 0.492122
4 2 -0.00911303 0.175854 0.427736
556 2 0.281843 1.0023 0.128477
248 2 0.360066 0.0373508 0.245107
380 1 0.339568 0.163628 0.0434612
360 2 0.366414 0.10796 0.0689507
327 1 0.442583 0.0513782 0.288967
33 2 0.487203 0.0905644 0.228282
534 1 0.55422 0.110933 0.16927
51 2 0.517604 0.0969265 0.0794195
44 2 0.636232 0.0867056 0.188458
280 1 0.436284 0.0730539 0.0427404
358 2 0.564289 0.16911 0.173269
294 2 0.424515 0.0189697 0.0784838
341 2 0.55216 0.157616 0.351965
321 2 0.417808 0.0759302 0.371779
75 1 0.622246 0.130798 0.39863
1 1 0.389391 0.0538014 0.459037
71 2 0.607689 0.0812121 0.447198
229 2 0.649903 0.167164 0.469144
509 2 0.582978 0.185868 0.0197355
29 1 0.649321 0.0357901 0.496218
436 2 0.417206 0.19607 0.371881
32 2 0.495613 0.00646862 0.312666
221 2 0.41236 0.197855 0.0501633
184 2 0.98519 0.145145 0.0198839
125 2 0.719256 0.023257 0.278407
501 2 0.687411 0.115443 0.331736
119 1 0.705761 0.082011 0.25532
558 2 0.784957 0.0967239 0.209729
559 1 0.867279 0.120267 0.218461
458 2 0.930193 0.0782575 0.244218
140 2 0.88968 0.148045 0.135779
246 1 0.966098 0.174535 0.0997098
494 2 0.85531 0.163094 0.28453
265 2 0.770253 0.0455716 0.0517833
68 2 0.729465 0.0239029 0.44976
452 1 0.819034 0.00836668 0.435204
178 2 0.875365 0.0527927 0.457281
481 2 0.698682 0.126694 0.0163837
206 2 0.0931014 0.205661 0.309594
10 1 0.203269 0.223716 0.0815012
97 2 0.148561 0.227403 0.160113
525 1 0.0355122 0.367422 0.282456
507 1 0.250054 0.329478 0.106281
422 2 0.266443 0.315473 0.202215
301 2 0.236237 0.277848 0.0593232
139 2 0.168565 0.358522 0.0961198
433 1 0.104434 0.377468 0.0299922
521 2 0.295786 0.230673 0.288148
562 2 0.022547 0.350012 0.057313
292 2 0.0903233 0.327706 0.32991
49 2 0.307524 0.243746 0.450285
193 2 0.18492 0.303767 0.451616
209 1 0.0958611 0.311461 0.426003
158 2 0.0418979 0.263932 0.422249
129 1 0.0204473 0.219598 0.364763
403 2 0.314371 0.363841 0.0651386
179 2 0.327324 0.355807 0.432633
361 1 0.327052 0.203614 0.372744
36 2 0.217417 0.400508 0.36248
20 1 0.327846 0.278543 0.239669
533 1 0.507129 0.209474 0.360415
390 1 0.588525 0.212611 0.107236
526 2 0.38677 0.264077 0.164017
263 1 0.435223 0.251885 0.08225
409 2 0.52558 0.255007 0.0992283
288 2 0.532871 0.339092 0.225442
344 1 0.475216 0.384875 0.247881
424 1 0.57747 0.299134 0.28185
126 2 0.381158 0.302301 0.311705
274 2 0.448432 0.381541 0.342365
188 2 0.526026 0.251183 0.294997
45 2 0.550092 0.231273 0.441602
169 2 0.596202 0.32655 0.364025
21 1 0.405793 0.338676 0.385221
519 2 0.459712 0.317886 0.45735
337 2 0.402225 0.384637 0.184875
41 2 0.665154 0.282868 0.258241
445 2 0.412396 0.285706 0.00299585
348 2 0.653457 0.367332 0.494365
235 1 0.671308 0.350242 0.402591
349 2 0.981795 0.346907 0.209615
247 2 0.675247 0.231399 0.127527
115 2 0.94833 0.230409 0.072311
83 1 0.859098 0.22091 0.292725
441 2 0.808857 0.247803 0.218047
334 1 0.949549 0.357674 0.115144
310 2 0.721634 0.320651 0.128667
42 2 0.890238 0.31608 0.0790659
37 1 0.72217 0.270756 0.182542
571 2 0.950355 0.233136 0.301842
343 1 0.720979 0.381765 0.136001
553 2 0.820899 0.234662 0.382153
432 2 0.88786 0.322989 0.411874
489 1 0.819621 0.284169 0.433099
449 2 0.739165 0.310115 0.413485
290 1 0.903877 0.380175 0.406103
568 1 0.902364 0.270375 0.0199261
185 2 0.98713 0.386207 0.364901
401 2 0.773912 0.392708 0.215315
566 2 0.698406 0.396845 0.351084
216 2 0.756693 0.406383 0.0534861
299 1 0.278662 0.404745 0.438095
89 2 0.0952821 0.410918 0.258393
499 2 0.24404 0.447423 0.231232
357 2 0.187004 0.493806 0.106803
46 1 0.26768 0.482901 0.156047
354 1 0.175081 0.434474 0.294528
76 2 0.0306137 0.559648 0.260232
242 2 0.295917 0.535727 0.177537
331 2 0.185954 0.581263 0.253048
163 1 0.269451 0.587672 0.214295
170 2 0.15927 0.482696 0.345711
19 1 0.0951432 0.496878 0.416589
476 2 0.105897 0.552698 0.43957
495 2 0.0163556 0.490435 0.366097
487 1 0.145843 0.483003 0.0218072
423 2 0.0970349 0.434895 0.035544
91 1 0.0964189 0.601292 0.250855
485 2 0.0926063 0.528303 0.988754
233 2 0.336404 0.449751 0.428182
9 2 0.109399 0.462654 0.496384
427 2 0.332372 0.454013 0.103703
425 1 0.375795 0.40206 0.0969519
259 2 0.450363 0.408134 0.0423423
133 2 0.362829 0.535409 0.486414
473 2 0.515001 0.434409 0.235796
300 1 0.584793 0.460365 0.191783
546 2 0.559301 0.497311 0.121295
549 2 0.452395 0.548953 0.195646
109 1 0.420594 0.565156 0.284749
23 2 0.464643 0.554717 0.0387924
164 1 0.514105 0.547341 0.119208
394 2 0.404007 0.515848 0.336729
544 2 0.630193 0.493765 0.258366
420 2 0.641404 0.414461 0.158802
389 1 0.395321 0.493723 0.42307
54 2 0.478523 0.483048 0.463282
230 2 0.569799 0.593214 0.126404
437 2 0.338901 0.595422 0.277538
131 2 0.486425 0.594388 0.333574
249 2 0.845459 0.409214 0.347095
465 2 0.925144 0.413427 0.109375
27 2 0.977607 0.501563 0.0818252
137 1 0.971614 0.519561 0.296298
172 1 0.768646 0.422841 0.297314
374 2 0.770302 0.480707 0.281844
462 1 0.914449 0.472596 0.132822
302 2 0.933904 0.483409 0.227391
211 2 0.832595 0.496481 0.105644
173 1 0.710808 0.524471 0.257928
195 2 0.723039 0.544383 0.16729
451 1 0.783064 0.547211 0.0937666
405 2 0.715705 0.567505 0.327432
275 2 0.905725 0.541641 0.354147
252 2 0.812384 0.5867 0.443711
84 1 0.877455 0.546186 0.450162
393 2 0.838679 0.592477 0.106395
305 2 0.843614 0.494667 0.48042
135 2 0.746814 0.553222 0.00126956
6 2 0.89749 0.405737 0.493384
359 2 0.944297 0.559962 0.514914
332 2 0.0812214 0.633626 0.167722
478 1 0.237212 0.740595 0.29802
168 2 0.247164 0.721499 0.205191
518 2 0.274104 0.630236 0.147629
479 1 0.300916 0.68566 0.154351
415 1 0.0513825 0.785181 0.137428
373 2 0.146705 0.739944 0.312752
520 2 0.280819 0.79476 0.312335
528 2 0.0935598 0.62885 0.339654
460 1 0.109351 0.610982 0.433705
116 2 0.194416 0.623565 0.461797
345 1 0.0895182 0.75513 0.386494
448 2 0.122776 0.723697 0.466065
446 2 0.284635 0.702245 0.353359
511 2 0.0539486 0.726937 0.140186
134 2 0.230293 0.773258 0.0499263
406 1 0.0166535 0.673933 0.145378
414 2 0.031751 0.79833 0.039313
575 2 0.334331 0.654593 0.481379
266 2 0.389069 0.697796 0.166772
291 1 0.470146 0.722561 0.131277
527 2 0.51757 0.67831 0.0964577
55 1 0.590685 0.645165 0.0853269
144 2 0.518484 0.747751 0.207584
167 2 0.444919 0.763548 0.0676531
412 2 0.58105 0.667212 0.313737
536 2 0.540565 0.64124 0.463887
488 1 0.5125 0.647071 0.367238
399 1 0.354554 0.695815 0.414945
60 2 0.437616 0.683017 0.368511
431 2 0.368721 0.744226 0.46446
417 1 0.588567 0.781068 0.433139
232 2 0.517856 0.760238 0.491221
565 2 0.640008 0.737793 0.395896
352 1 0.660948 0.693695 0.33499
219 1 0.519299 0.799183 0.257229
564 2 -0.000901276 0.738296 0.382469
43 2 0.663761 0.6717 0.130041
128 1 0.769137 0.607995 0.36503
148 2 0.696528 0.720928 0.254622
502 2 0.974329 0.66112 0.0611493
28 1 0.864275 0.674779 0.245796
224 2 0.956958 0.667798 0.221901
469 1 0.724973 0.708964 0.162192
34 2 0.8102 0.68705 0.169964
157 2 0.731315 0.762581 0.113677
159 2 0.830193 0.628494 0.29136
234 2 0.864024 0.720097 0.312695
368 2 0.717024 0.6552 0.378752
453 1 0.909239 0.73407 0.397794
61 2 0.878344 0.787142 0.43428
285 2 0.884394 0.695446 0.467309
52 2 0.125159 0.993413 0.435211
202 2 0.137598 0.806997 0.158403
306 2 0.296799 0.822885 0.163337
442 1 0.218975 0.819552 0.107753
475 2 0.11097 0.934807 0.115299
323 2 0.263948 0.964522 0.28197
439 2 0.207221 0.867567 0.0567188
56 1 0.141453 0.908063 0.0339613
104 2 0.0439715 0.882526 0.290322
112 2 0.191887 0.878713 0.315997
372 1 0.268537 0.913849 0.326392
40 2 0.0877885 0.812978 0.39222
271 1 0.110582 0.867065 0.359841
293 2 0.103595 0.901242 0.440251
50 2 0.297317 0.921405 0.421385
2 1 0.0237843 0.953661 0.126882
315 2 0.335737 0.882541 0.281494
461 1 0.0855685 0.951654 0.486492
199 1 0.334758 0.827741 0.254593
338 2 0.327942 0.96888 0.98587
386 2 0.38942 0.996489 0.458717
267 2 0.541797 0.803573 0.355948
251 2 0.594631 0.992729 0.0293366
264 1 0.356042 0.982259 0.0779853
57 1 0.467708 0.816585 0.0360121
96 2 0.426395 0.812281 0.252652
541 1 0.54368 0.961293 0.278797
283 2 0.57987 0.830825 0.201771
367 2 0.561856 0.818113 0.0443688
365 2 0.380896 0.936123 0.132161
73 1 0.440964 0.900507 0.167627
103 2 0.485073 0.917987 0.245745
257 2 0.586574 0.978687 0.198635
238 2 0.442461 0.855799 0.107626
326 1 0.602919 0.853494 0.110173
312 2 0.575807 0.908306 0.0994655
190 1 0.615113 0.960999 0.108702
313 2 0.596343 0.939061 0.351716
497 1 0.603016 0.932603 0.452407
413 2 0.523074 0.905421 0.476139
545 2 0.638529 0.819184 0.483041
48 1 0.340641 0.949813 0.493193
340 2 0.595042 0.985889 0.491153
391 2 0.42847 0.829312 0.502719
482 2 0.00323585 0.993698 0.200537
278 2 0.993731 0.810972 0.199043
328 2 0.997882 0.972443 0.0402122
253 1 0.785804 0.993074 0.0894283
438 2 0.838776 0.989448 0.34504
105 2 0.978931 0.903897 0.152417
155 1 0.976815 0.866028 0.228684
101 1 0.762043 0.818556 0.12939
95 2 0.837744 0.828682 0.0716135
567 2 0.827488 0.992277 0.179056
189 2 0.693563 0.852271 0.0981966
440 2 0.768196 0.829598 0.22548
74 1 0.799979 0.872066 0.283323
522 2 0.70823 0.960846 0.108224
317 1 0.783208 0.980725 0.26681
122 2 0.893195 0.870631 0.274681
14 2 0.763586 0.924662 0.270391
387 2 0.784841 0.855971 0.378246
186 2 0.908477 0.877951 0.462637
335 1 0.841769 0.838733 0.451948
79 2 0.825057 0.964005 0.0119954
121 2 0.989982 0.9593 0.476347
297 2 0.836619 0.96163 0.490624
276 2 0.0844735 0.0456401 1.0059
218 1 0.163345 0.0736536 0.993988
284 2 0.215374 0.139635 0.525423
311 2 0.0719194 0.162297 0.562871
426 1 0.161102 0.177446 0.57079
123 2 0.273069 0.0302158 0.692089
353 1 0.268331 0.0663588 0.768091
490 2 0.176896 0.0653736 0.792912
316 1 0.0986719 0.0935681 0.786276
53 2 0.297868 0.119966 0.744079
322 2 0.16075 0.11864 0.930177
554 2 0.226934 0.0364017 0.956919
466 2 0.0965389 0.151183 0.783525
576 2 0.0214991 0.0778538 0.740006
508 2 0.298821 0.161439 0.952972
245 1 0.209331 0.171785 0.924613
142 2 0.184999 0.182212 0.666281
308 1 0.152152 0.195833 0.757522
166 2 0.330636 0.0525254 0.835859
222 2 0.209586 0.195873 0.831929
156 1 0.00929694 0.0156485 0.973064
250 2 0.446985 0.0781948 0.528622
146 1 0.480872 0.120528 0.587638
176 2 0.516332 0.165923 0.538771
375 2 0.413149 0.139638 0.645012