LAMMPS data file via write_data, version 29 Oct 2020, timestep = 500000

3000 atoms
5 atom types

-26.729703198620403 30.01283963424644 xlo xhi
-7.937005259840997 7.937005259840997 ylo yhi
-7.937005259840997 7.937005259840997 zlo zhi

Masses

1 1
2 1
3 1
4 1
5 1

PairIJ Coeffs # lj/cut

1 1 1 1 2.5
1 2 1 1 2.5
1 3 1 1 2.5
1 4 0.8 1 2.5
1 5 1.41421 1.73205 2.5
2 2 1 1 2.5
2 3 1 1 2.5
2 4 0.8 1 2.5
2 5 0.1 3 2.5
3 3 1 1 2.5
3 4 0.8 1 2.5
3 5 1.41421 1.73205 2.5
4 4 1 1 2.5
4 5 1.41421 1.73205 2.5
5 5 2 3 2.5

Atoms # atomic

1 1 -26.723038984795554 -7.937005259840997 -7.937005259840997 0 0 0
2 1 -25.95099347073401 -7.143304733856898 -7.937005259840997 0 0 0
3 1 -25.95099347073401 -7.937005259840997 -7.143304733856898 0 0 0
4 1 -26.723038984795554 -7.143304733856898 -7.143304733856898 0 0 0
5 1 -25.178947956672754 -7.937005259840997 -7.937005259840997 0 0 0
6 1 -25.178947956672754 -7.143304733856898 -7.143304733856898 0 0 0
1695 4 -21.62762364326442 -6.82067678493507 7.663607249618758 0 1 0
1865 4 -8.017451857946172 7.580394986685709 7.443436224631596 0 0 0
1523 4 -4.016806970755906 7.414725657046972 -6.2444021568420585 0 1 0
1729 4 -1.2613089032083444 -6.106202233158704 -7.766753288285457 0 0 2
601 2 0.0 -7.937005259840997 -7.937005259840997 0 0 0
602 2 0.0 -7.143304733856898 -7.143304733856898 0 0 0
2346 4 -1.5749601138974363 -7.016851023860756 -6.393986230768053 0 0 0
1658 4 -1.9620257335201223 6.407228614093103 -7.70191702844689 0 -1 1
2642 4 1.7584402318809123 -5.153209968816591 -5.170941146592988 0 0 -1
2764 4 9.10562860960808 -7.188187228687384 -5.676931906001943 0 2 1
2890 4 11.035694997225612 -6.818751910972988 7.099969049804953 0 0 0
2757 4 19.929874279558256 -4.951310199918719 6.160193363669564 0 1 -2
801 3 28.462084392298664 -7.937005259840997 -7.937005259840997 0 0 0
804 3 28.462084392298664 -7.143304733856898 -7.143304733856898 0 0 0
802 3 29.234129906360117 -7.143304733856898 -7.937005259840997 0 0 0
803 3 29.234129906360117 -7.937005259840997 -7.143304733856898 0 0 0
805 3 30.00617542042159 -7.937005259840997 -7.937005259840997 0 0 0
806 3 30.00617542042159 -7.143304733856898 -7.143304733856898 0 0 0
7 1 -26.723038984795554 -6.3496042078727974 -7.937005259840997 0 0 0
8 1 -25.95099347073401 -5.555903681888698 -7.937005259840997 0 0 0
9 1 -25.95099347073401 -6.3496042078727974 -7.143304733856897 0 0 0
10 1 -26.723038984795554 -5.555903681888697 -7.143304733856898 0 0 0
11 1 -25.178947956672754 -6.3496042078727974 -7.937005259840997 0 0 0
12 1 -25.178947956672754 -5.555903681888697 -7.143304733856898 0 0 0
2278 4 -23.30357471185194 -6.652603243458977 -6.265535063238923 0 3 -1
1582 4 -22.531799346828414 -4.280984762168013 -7.7608810328509685 0 1 0
2285 4 -21.780771539795076 -5.555340828867298 -7.405802651210291 0 1 1
2073 4 -18.087432438126168 -4.409425083148152 -6.030046634828664 0 0 0
1833 4 -7.5685894936045495 -5.499399368593201 7.327814258868817 0 1 1
2053 4 -5.174104891594777 -5.225068218957921 7.539398930793243 0 0 0
1900 4 -4.066858940348942 -6.063804107362744 7.790534712962427 0 -1 -5
603 2 0.0 -6.3496042078727974 -7.937005259840997 0 0 0
604 2 0.0 -5.555903681888697 -7.143304733856898 0 0 0
2609 4 10.147975772357107 -5.5425695313821155 -5.5455481117211205 0 0 -1
2585 4 24.065479786490844 -5.965765843973539 -6.606366347865418 0 -1 3
807 3 28.462084392298664 -6.3496042078727974 -7.937005259840997 0 0 0
810 3 28.462084392298664 -5.555903681888697 -7.143304733856898 0 0 0
2711 4 27.29071559028833 -5.8415586291878245 6.62588086019069 0 0 1
808 3 29.234129906360117 -5.555903681888698 -7.937005259840997 0 0 0
809 3 29.234129906360117 -6.3496042078727974 -7.143304733856897 0 0 0
811 3 30.00617542042159 -6.3496042078727974 -7.937005259840997 0 0 0
812 3 30.00617542042159 -5.555903681888697 -7.143304733856898 0 0 0
13 1 -26.723038984795554 -4.762203155904598 -7.937005259840997 0 0 0
14 1 -25.95099347073401 -3.9685026299204984 -7.937005259840997 0 0 0
15 1 -25.95099347073401 -4.762203155904598 -7.143304733856898 0 0 0
16 1 -26.723038984795554 -3.9685026299204984 -7.143304733856898 0 0 0
17 1 -25.178947956672754 -4.762203155904598 -7.937005259840997 0 0 0
18 1 -25.178947956672754 -3.9685026299204984 -7.143304733856898 0 0 0
2126 4 -24.161545913703932 -4.416584438936419 -7.382030892711064 0 -1 0
1784 4 -20.929852725833793 -3.8903771693397653 7.8977881327718364 0 0 1
1879 4 -7.909019444951844 -5.783500121555628 -7.396944733377544 0 2 -1
2009 4 -9.118946513016143 -4.794769378347401 -6.314446976654091 0 2 0
1640 4 -5.928449406443822 -5.439440682002201 -7.5283722690953425 0 0 -1
1689 4 -6.6635343925549515 -4.49001810189452 -7.735382181101038 0 0 0
605 2 0.0 -4.762203155904598 -7.937005259840997 0 0 0
606 2 0.0 -3.9685026299204984 -7.143304733856898 0 0 0
2988 5 10.522664140053488 -2.382103378117562 7.786698137804528 0 0 -1
2494 4 14.818416558540802 -3.721858870519278 -6.8996184186427 0 0 2
2932 4 20.38898119388372 -2.8585897609615922 -6.648835165634764 0 0 -2
2933 4 22.13972556884407 -5.139816688444515 7.210109924642414 0 0 0
2883 4 21.58242221178561 -2.8438277852326164 -6.1141429770746125 0 -2 1
2728 4 23.9526965340422 -3.3680651113110853 6.364214561891158 0 0 -2
2696 4 27.38085330388086 -5.540371136654095 -7.725621092748855 0 -2 2
813 3 28.462084392298664 -4.762203155904598 -7.937005259840997 0 0 0
816 3 28.462084392298664 -3.9685026299204984 -7.143304733856898 0 0 0
2660 4 27.79539106029622 -3.1014071317983576 -7.268475949693307 0 0 1
814 3 29.234129906360117 -3.9685026299204984 -7.937005259840997 0 0 0
815 3 29.234129906360117 -4.762203155904598 -7.143304733856898 0 0 0
817 3 30.00617542042159 -4.762203155904598 -7.937005259840997 0 0 0
818 3 30.00617542042159 -3.9685026299204984 -7.143304733856898 0 0 0
19 1 -26.723038984795554 -3.1748021039363987 -7.937005259840997 0 0 0
20 1 -25.95099347073401 -2.381101577952299 -7.937005259840997 0 0 0
21 1 -25.95099347073401 -3.1748021039363987 -7.143304733856898 0 0 0
22 1 -26.723038984795554 -2.381101577952299 -7.143304733856898 0 0 0
23 1 -25.178947956672754 -3.1748021039363987 -7.937005259840997 0 0 0
24 1 -25.178947956672754 -2.381101577952299 -7.143304733856898 0 0 0
2153 4 -24.00646157616949 -3.4218395984122734 -6.566826647682014 0 1 1
1964 4 -20.224087386831044 -2.326553720088247 -7.573468327277145 0 -1 0
1531 4 -15.738172553839851 -4.585587600571667 -6.635790828153944 0 3 -1
1789 4 -8.864492584660923 -2.923979097419714 -5.956974305405713 0 2 1
1823 4 -9.454338706670502 -3.334757679567085 -6.9552566137149565 0 0 2
1576 4 -6.945607405900768 -2.3710769835739427 7.720169391376533 0 -1 -1
1697 4 -7.95010721907312 -5.021697864291609 -6.264982958422313 0 1 -2
1733 4 -5.219193157031779 -1.2312236226228703 -6.86287762705798 0 -1 0
1595 4 -2.022487147677855 -3.0032321529668415 -7.215548880633341 0 1 0
2022 4 -0.9299682037024816 -3.373320857171719 -7.270855173693641 0 -1 1
607 2 0.0 -3.1748021039363987 -7.937005259840997 0 0 0
608 2 0.0 -2.381101577952299 -7.143304733856898 0 0 0
2710 4 0.7816864645532848 -3.09255566524114 -6.919879597924826 0 0 0
2683 4 7.149439063605757 -3.106111337658079 -6.698150994803269 0 1 1
2689 4 8.700445663308622 -1.8611676388629108 6.670385541128498 0 2 -1
2563 4 15.23360929244911 -2.543449231904916 -7.3688864785003 0 -1 2
2894 4 25.276403298017396 -1.5301122860145964 -5.351290781024675 0 1 -2
2433 4 25.314265408168882 -1.544329062129801 7.524914825097953 0 2 0
819 3 28.462084392298664 -3.1748021039363987 -7.937005259840997 0 0 0
822 3 28.462084392298664 -2.381101577952299 -7.143304733856898 0 0 0
820 3 29.234129906360117 -2.381101577952299 -7.937005259840997 0 0 0
821 3 29.234129906360117 -3.1748021039363987 -7.143304733856898 0 0 0
823 3 30.00617542042159 -3.1748021039363987 -7.937005259840997 0 0 0
824 3 30.00617542042159 -2.381101577952299 -7.143304733856898 0 0 0
25 1 -26.723038984795554 -1.5874010519681994 -7.937005259840997 0 0 0
26 1 -25.95099347073401 -0.7937005259840997 -7.937005259840997 0 0 0
27 1 -25.95099347073401 -1.5874010519681994 -7.143304733856898 0 0 0
28 1 -26.723038984795554 -0.7937005259840997 -7.143304733856898 0 0 0
2246 4 -23.75180513218181 -1.79743268309768 -6.942132830347338 0 1 1
29 1 -25.178947956672754 -1.5874010519681994 -7.937005259840997 0 0 0
30 1 -25.178947956672754 -0.7937005259840997 -7.143304733856898 0 0 0
1796 4 -23.044086288248725 0.016997183802161316 -7.625077657392685 0 0 1
1414 4 -21.88592290760337 -2.291034978023061 -6.432398381811078 0 -1 1
1401 4 -22.15803146280124 -1.8498448738764635 -4.915983275125074 0 -1 0
2141 4 -20.86592659154308 -0.7118097273412956 -6.849112896230757 0 -1 0
2305 4 -10.398975026409621 -2.185888122613937 -6.407773459664953 0 0 0
609 2 0.0 -1.5874010519681994 -7.937005259840997 0 0 0
610 2 0.0 -0.7937005259840997 -7.143304733856898 0 0 0
2561 4 2.137914905374953 -2.996680642392171 -7.507285819498134 0 1 2
2805 4 9.502754232289409 -2.1120365228471365 5.79433271274901 0 -1 0
2606 4 10.151636669784152 -0.8736888236924114 -7.253629474346182 0 0 0
2673 4 18.945828993940605 -2.444877278390554 -6.596120185691727 0 3 -1
2421 4 27.52458395164994 -1.998288767046998 -6.943289815676531 0 0 1
825 3 28.462084392298664 -1.5874010519681994 -7.937005259840997 0 0 0
828 3 28.462084392298664 -0.7937005259840997 -7.143304733856898 0 0 0
826 3 29.234129906360117 -0.7937005259840997 -7.937005259840997 0 0 0
827 3 29.234129906360117 -1.5874010519681994 -7.143304733856898 0 0 0
829 3 30.00617542042159 -1.5874010519681994 -7.937005259840997 0 0 0
830 3 30.00617542042159 -0.7937005259840997 -7.143304733856898 0 0 0
31 1 -26.723038984795554 2.0070784565712057e-18 -7.937005259840997 0 0 0
33 1 -25.95099347073401 7.630607069192929e-19 -7.143304733856898 0 0 0
35 1 -25.178947956672754 -1.52522028639718e-18 -7.937005259840997 0 0 0
2266 4 -23.60275540484287 0.39461720810435874 -6.886072028270037 0 -1 0
1433 4 -23.335158774026727 1.7731105443118154 -6.561441835010334 0 1 0
1605 4 -21.93199984659876 -0.13380830376713362 -7.1373678489636 0 2 1
2191 4 -22.758303003508136 1.2531952983610022 -7.162468257004546 0 -1 -1
1693 4 -19.670257255181465 -1.7799890897285433 -6.666882832104804 0 1 -2
2035 4 -14.022666636726758 -0.4277524112699158 6.724703438351511 0 1 0
2155 4 -1.7269185385125647 1.1748630928565043 -7.18513272225592 0 0 -1
611 2 0.0 0.0 -7.937005259840997 0 0 0
2559 4 2.186787832917025 -2.0450794297502313 7.6940476891628915 0 1 -1
2731 4 7.488572831712707 -0.3118982930536645 7.87561444233678 0 1 -1
2808 4 21.56251204369832 -0.48927348902992523 -6.412265531946544 0 1 3
2516 4 25.79025768999823 1.0881250134203198 7.901433171602647 0 -1 1
831 3 28.462084392298664 1.2038779310305913e-18 -7.937005259840997 0 0 0
833 3 29.234129906360117 5.099804857094298e-19 -7.143304733856898 0 0 0
835 3 30.00617542042159 1.4550623119740226e-18 -7.937005259840997 0 0 0
32 1 -25.95099347073401 0.7937005259840997 -7.937005259840997 0 0 0
34 1 -26.723038984795554 0.7937005259840997 -7.143304733856898 0 0 0
37 1 -26.723038984795554 1.5874010519681994 -7.937005259840997 0 0 0
39 1 -25.95099347073401 1.5874010519681994 -7.143304733856898 0 0 0
36 1 -25.178947956672754 0.7937005259840997 -7.143304733856898 0 0 0
41 1 -25.178947956672754 1.5874010519681994 -7.937005259840997 0 0 0
1556 4 -24.226053735106728 0.2784971625469574 -7.8494428569617325 0 2 -1
1794 4 -21.074650548147197 -0.03897143322678573 -5.883311496861823 0 0 1
2269 4 -21.40886853955217 2.3300906572527613 -6.313822930008047 0 1 1
1496 4 -7.483123266860057 0.6807952747440191 -7.009182250179582 0 -3 1
2052 4 -2.3959824818856243 0.14591029770141384 -6.984535428329008 0 1 0
2328 4 -0.896501134359521 -0.05685483530296363 -5.72588562709606 0 0 0
612 2 0.0 0.7937005259840997 -7.143304733856898 0 0 0
613 2 0.0 1.5874010519681994 -7.937005259840997 0 0 0
2470 4 1.0186044608511273 3.2837885336606796 7.612891354170011 0 1 -1
2896 4 1.253627645753702 -0.21942068668590756 -6.8189758825997595 0 -2 0
2886 4 8.719321750381049 3.0651081044574235 -7.0427898938999975 0 1 0
2488 4 20.666028005445988 0.39585564246730365 7.8273807389944 0 1 0
2413 4 24.8137233773525 1.5863387824046087 -7.360622084212322 0 2 1
2477 4 26.959829005010896 0.7752017485547588 7.696135209140134 0 0 1
2656 4 27.361749261664183 2.289947861024793 -7.0474121896900055 0 -1 0
834 3 28.462084392298664 0.7937005259840997 -7.143304733856898 0 0 0
837 3 28.462084392298664 1.5874010519681994 -7.937005259840997 0 0 0
832 3 29.234129906360117 0.7937005259840997 -7.937005259840997 0 0 0
836 3 30.00617542042159 0.7937005259840997 -7.143304733856898 0 0 0
839 3 29.234129906360117 1.5874010519681994 -7.143304733856898 0 0 0
841 3 30.00617542042159 1.5874010519681994 -7.937005259840997 0 0 0
38 1 -25.95099347073401 2.381101577952299 -7.937005259840997 0 0 0
40 1 -26.723038984795554 2.381101577952299 -7.143304733856898 0 0 0
43 1 -26.723038984795554 3.1748021039363987 -7.937005259840997 0 0 0
45 1 -25.95099347073401 3.1748021039363987 -7.143304733856898 0 0 0
42 1 -25.178947956672754 2.381101577952299 -7.143304733856898 0 0 0
47 1 -25.178947956672754 3.1748021039363987 -7.937005259840997 0 0 0
1755 4 -21.939388145910964 2.9772238243089313 7.578468682824196 0 0 -2
1456 4 -1.4397555027525264 3.5213828879509603 6.111162504923524 0 1 -1
614 2 0.0 2.381101577952299 -7.143304733856898 0 0 0
615 2 0.0 3.1748021039363987 -7.937005259840997 0 0 0
2687 4 8.862205061342213 3.976632591921666 -7.777164728030023 0 0 2
2774 4 26.52271566448407 1.9410050214165386 -7.875074050823922 0 -2 1
840 3 28.462084392298664 2.381101577952299 -7.143304733856898 0 0 0
843 3 28.462084392298664 3.1748021039363987 -7.937005259840997 0 0 0
2925 4 27.596471779986416 3.3368634126247585 -7.171044443448549 0 0 1
838 3 29.234129906360117 2.381101577952299 -7.937005259840997 0 0 0
842 3 30.00617542042159 2.381101577952299 -7.143304733856898 0 0 0
845 3 29.234129906360117 3.1748021039363987 -7.143304733856898 0 0 0
847 3 30.00617542042159 3.1748021039363987 -7.937005259840997 0 0 0
44 1 -25.95099347073401 3.9685026299204984 -7.937005259840997 0 0 0
46 1 -26.723038984795554 3.9685026299204984 -7.143304733856898 0 0 0
49 1 -26.723038984795554 4.762203155904598 -7.937005259840997 0 0 0
51 1 -25.95099347073401 4.762203155904598 -7.143304733856898 0 0 0
48 1 -25.178947956672754 3.9685026299204984 -7.143304733856898 0 0 0
53 1 -25.178947956672754 4.762203155904598 -7.937005259840997 0 0 0
2372 4 -24.185257302855877 5.222899690482535 7.580488140132833 0 -1 0
1468 4 -24.08379697978908 3.6884293122827643 7.911500703295288 0 1 -1
1581 4 -22.877131576470116 2.3638666496655105 -7.505718208135783 0 -1 2
1998 4 -22.522901192680024 5.9922998895612 6.856549231015089 0 1 0
2237 4 -20.507914493184245 3.36194638721721 -7.578697443698552 0 0 1
1618 4 -19.010961609281242 2.8678036789723373 -7.101530090130482 0 0 2
1878 4 -19.18608011210522 3.8211460398365635 -7.290189465207456 0 0 1
1441 4 -12.847586774237922 2.790455646094698 -7.052412854350086 0 -1 1
2085 4 -3.631427923942544 5.333089841089917 7.346403772196851 0 0 -1
1485 4 -3.857872042803705 3.441705304584828 -7.137474661256485 0 0 2
616 2 0.0 3.9685026299204984 -7.143304733856898 0 0 0
617 2 0.0 4.762203155904598 -7.937005259840997 0 0 0
2690 4 2.135490208609374 6.481244965094751 -6.276431500431505 0 1 1
2408 4 11.307953646856244 4.7050196269495554 -6.442520941458919 0 0 1
2703 4 14.384854794001113 3.6946609054319115 -6.694645978945671 0 3 0
2800 4 15.457200436246932 3.6882512863643884 -7.054348240909071 0 0 3
2590 4 19.63584608363251 3.854283208746775 -7.51228461675894 0 0 3
2799 4 25.969784929806206 3.5474993456876978 7.935410113475519 0 -2 0
846 3 28.462084392298664 3.9685026299204984 -7.143304733856898 0 0 0
849 3 28.462084392298664 4.762203155904598 -7.937005259840997 0 0 0
2564 4 27.21365141713839 4.808032041886082 -7.144116515773293 0 -1 -1
844 3 29.234129906360117 3.9685026299204984 -7.937005259840997 0 0 0
848 3 30.00617542042159 3.9685026299204984 -7.143304733856898 0 0 0
851 3 29.234129906360117 4.762203155904598 -7.143304733856898 0 0 0
853 3 30.00617542042159 4.762203155904598 -7.937005259840997 0 0 0
50 1 -25.95099347073401 5.555903681888698 -7.937005259840997 0 0 0
52 1 -26.723038984795554 5.555903681888697 -7.143304733856898 0 0 0
55 1 -26.723038984795554 6.3496042078727974 -7.937005259840997 0 0 0
57 1 -25.95099347073401 6.3496042078727974 -7.143304733856897 0 0 0
54 1 -25.178947956672754 5.555903681888697 -7.143304733856898 0 0 0
59 1 -25.178947956672754 6.3496042078727974 -7.937005259840997 0 0 0
1631 4 -24.31802682312666 6.635232860910739 -7.1345031666974705 0 -2 0
2041 4 -24.209628121842822 4.507208387180481 6.743794417992909 0 1 1
2020 4 -22.90066131559092 5.235286820992127 7.710133935484072 0 -1 1
2118 4 -20.27233703782166 5.872757833251 6.830575941411672 0 1 1
2230 4 -14.830267089501515 4.950147033433395 -7.107840731340333 0 2 3
2067 4 -13.64291509474795 4.893129599139041 -7.804885837868343 0 -1 0
1429 4 -10.089495588546978 -7.019846136673862 -7.84519085139 0 -1 -1
2072 4 -7.940323925720221 5.437008816895227 -7.83608028922878 0 0 0
2082 4 -5.383055128262718 5.2804791498557115 6.657760405656546 0 -1 -2
618 2 0.0 5.555903681888697 -7.143304733856898 0 0 0
619 2 0.0 6.3496042078727974 -7.937005259840997 0 0 0
2431 4 1.8937537875085384 6.9439583754209355 -7.292066218241726 0 0 -3
2843 4 4.520162449535102 6.160497418662858 7.187234954914801 0 -1 0
2483 4 13.555894603746674 5.339396863860253 -7.198614094949349 0 0 1
2631 4 15.085424344294333 6.542120569639863 -6.79053161521439 0 1 1
2691 4 19.201852416135928 7.22749833823909 -7.5755257373723355 0 -1 -1
2807 4 18.45162376861399 6.242679848098838 -7.207703542787815 0 0 2
2668 4 21.62744661344521 5.8091131313486075 -5.963921026389361 0 -1 2
2576 4 24.71793684914082 3.559166405097576 -7.347438608571481 0 -2 1
2451 4 25.652505291675862 6.133619119638191 -7.444004738107826 0 0 1
852 3 28.462084392298664 5.555903681888697 -7.143304733856898 0 0 0
855 3 28.462084392298664 6.3496042078727974 -7.937005259840997 0 0 0
2539 4 27.54873987031654 5.317277577384612 7.779807327250707 0 0 -2
850 3 29.234129906360117 5.555903681888698 -7.937005259840997 0 0 0
854 3 30.00617542042159 5.555903681888697 -7.143304733856898 0 0 0
857 3 29.234129906360117 6.3496042078727974 -7.143304733856897 0 0 0
859 3 30.00617542042159 6.3496042078727974 -7.937005259840997 0 0 0
56 1 -25.95099347073401 7.143304733856898 -7.937005259840997 0 0 0
58 1 -26.723038984795554 7.143304733856898 -7.143304733856898 0 0 0
60 1 -25.178947956672754 7.143304733856898 -7.143304733856898 0 0 0
2208 4 -23.760270025683987 7.828348071507348 -7.452215641125025 0 2 0
2343 4 -15.409404040651705 7.465156083869853 -6.440404565860337 0 -1 1
2078 4 -14.086152747797094 -7.865023309989745 7.7472900435238765 0 -1 -2
2386 4 -8.689178582831472 -7.010417328115197 -6.133804318653338 0 -1 0
2255 4 -8.150251754439582 6.5743311949946515 -6.520256839603703 0 -1 0
2253 4 -4.167765674125997 7.331883737662076 -7.305235007717705 0 -1 1
1927 4 -5.004018570184928 4.8805057241534175 7.834115686103238 0 -1 -1
1739 4 -7.5718520734274035 5.129972954939067 6.929145451196683 0 0 -1
2396 4 -1.8409070738307785 6.9761323788021965 -5.777834268701493 0 -3 -1
620 2 0.0 7.143304733856898 -7.143304733856898 0 0 0
1463 4 -1.1030915183888748 6.30036442222954 -6.815600705907365 0 0 -1
2630 4 10.44703990858196 -5.859062732452864 -6.561544874849329 0 -2 -1
2523 4 10.952879761012671 7.078919941730208 -7.796511880438971 0 1 -1
2870 4 15.050834917758737 7.061126097768654 -7.752743566246889 0 1 2
2641 4 16.33551624035566 -7.7549293335895095 -6.217987060532719 0 1 0
2476 4 17.508009360698757 6.782300639092441 -7.688656090970377 0 -2 0
2707 4 21.36476433999953 6.148798740320849 7.625378260737032 0 -1 0
2725 4 24.74812299662119 6.895032773243483 -7.931193007116057 0 -2 -2
2682 4 27.077211431909173 6.867538013573462 -7.396302658244363 0 -1 -1
858 3 28.462084392298664 7.143304733856898 -7.143304733856898 0 0 0
856 3 29.234129906360117 7.143304733856898 -7.937005259840997 0 0 0
860 3 30.00617542042159 7.143304733856898 -7.143304733856898 0 0 0
61 1 -26.723038984795554 -7.937005259840997 -6.3496042078727974 0 0 0
62 1 -25.95099347073401 -7.143304733856897 -6.3496042078727974 0 0 0
63 1 -25.95099347073401 -7.937005259840997 -5.555903681888698 0 0 0
64 1 -26.723038984795554 -7.143304733856898 -5.555903681888697 0 0 0
65 1 -25.178947956672754 -7.937005259840997 -6.3496042078727974 0 0 0
66 1 -25.178947956672754 -7.143304733856898 -5.555903681888697 0 0 0
1667 4 -24.385738788333676 -7.047252988596359 -6.161909273706249 0 0 1
2172 4 -22.55371761003778 -7.048193277815148 -5.486041184840553 0 0 0
2096 4 -20.729618669343395 -7.084590325047553 -5.258318643562696 0 1 -1
2024 4 -22.487264403185915 -7.412743420130536 -7.372373247006877 0 -1 -1
1918 4 -15.043506484940512 -7.502181669186572 -4.855147354160078 0 0 2
1639 4 -8.014892550643571 6.939597263038752 -5.212972877487815 0 0 -1
1632 4 -2.196588892722263 7.648400121595099 -7.022212513176774 0 0 -1
621 2 0.0 -7.937005259840997 -6.3496042078727974 0 0 0
622 2 0.0 -7.143304733856898 -5.555903681888697 0 0 0
1459 4 -0.7541522636239368 -6.391060915366904 -5.611080803099605 0 0 -1
1786 4 -1.0095129735568513 7.8500783256518085 -7.017507439352105 0 0 -1
2322 4 -1.1538276994681322 -7.663779989375598 -5.474803790800787 0 -1 -2
861 3 28.462084392298664 -7.937005259840997 -6.3496042078727974 0 0 0
864 3 28.462084392298664 -7.143304733856898 -5.555903681888697 0 0 0
862 3 29.234129906360117 -7.143304733856897 -6.3496042078727974 0 0 0
863 3 29.234129906360117 -7.937005259840997 -5.555903681888698 0 0 0
865 3 30.00617542042159 -7.937005259840997 -6.3496042078727974 0 0 0
866 3 30.00617542042159 -7.143304733856898 -5.555903681888697 0 0 0
67 1 -26.723038984795554 -6.3496042078727974 -6.3496042078727974 0 0 0
68 1 -25.95099347073401 -5.555903681888698 -6.3496042078727974 0 0 0
69 1 -25.95099347073401 -6.3496042078727974 -5.555903681888698 0 0 0
70 1 -26.723038984795554 -5.555903681888697 -5.555903681888697 0 0 0
1922 4 -24.154933714824104 -6.133453650912569 -6.839352013677867 0 1 0
71 1 -25.178947956672754 -6.3496042078727974 -6.3496042078727974 0 0 0
72 1 -25.178947956672754 -5.555903681888697 -5.555903681888697 0 0 0
1465 4 -24.40507108893486 -6.179332654779949 -5.602115079786674 0 1 0
2232 4 -23.81375399842343 -4.68694325627214 -6.408932297523957 0 1 -2
1526 4 -23.114832297697117 -5.122184739491066 -4.620679723884784 0 -1 0
1633 4 -22.200968313750003 -6.304296106437959 -6.481614015425845 0 2 0
1762 4 -18.623596696078323 -5.558965348229274 -6.646554782975718 0 -1 -1
2247 4 -9.37598286053033 -5.97960012396737 -6.5054023622696775 0 -1 0
1655 4 -2.4570340133295874 -5.984111852845828 -6.984072001242361 0 0 0
1571 4 -4.073494505293402 -7.335083982135499 -6.793380268712774 0 0 0
623 2 0.0 -6.3496042078727974 -6.3496042078727974 0 0 0
624 2 0.0 -5.555903681888697 -5.555903681888697 0 0 0
2370 4 -1.335842075810984 -4.212780875169032 -6.016142637336838 0 2 0
2908 4 2.8562199011755576 -6.2123278320535915 -5.6963578251504865 0 -1 1
2828 4 1.564814076488249 -6.740208414932021 -6.512317034803249 0 0 0
2709 4 4.508833620927603 -6.312232470322902 -5.117688062907291 0 3 0
2653 4 8.745423615353351 -5.475184496557881 -3.9570540444632223 0 0 2
2574 4 11.928208921403362 -5.132069276646618 -4.266379321521732 0 2 -1
2740 4 10.257498603811662 -5.15093589260606 -4.626298449651626 0 -1 -2
2904 4 18.768454434496665 -5.765737188522513 -5.984555436117401 0 1 0
867 3 28.462084392298664 -6.3496042078727974 -6.3496042078727974 0 0 0
870 3 28.462084392298664 -5.555903681888697 -5.555903681888697 0 0 0
868 3 29.234129906360117 -5.555903681888698 -6.3496042078727974 0 0 0
869 3 29.234129906360117 -6.3496042078727974 -5.555903681888698 0 0 0
871 3 30.00617542042159 -6.3496042078727974 -6.3496042078727974 0 0 0
872 3 30.00617542042159 -5.555903681888697 -5.555903681888697 0 0 0
73 1 -26.723038984795554 -4.762203155904598 -6.3496042078727974 0 0 0
74 1 -25.95099347073401 -3.9685026299204984 -6.3496042078727974 0 0 0
75 1 -25.95099347073401 -4.762203155904598 -5.555903681888698 0 0 0
76 1 -26.723038984795554 -3.9685026299204984 -5.555903681888697 0 0 0
77 1 -25.178947956672754 -4.762203155904598 -6.3496042078727974 0 0 0
78 1 -25.178947956672754 -3.9685026299204984 -5.555903681888697 0 0 0
2051 4 -24.346905854153622 -4.845244396009422 -5.414559618274518 0 -2 3
2366 4 -22.846987328344976 -4.005824127929137 -4.75848635268851 0 -1 2
1407 4 -23.359638740615836 -3.7339780111019403 -5.6342595408612794 0 0 0
1822 4 -23.43999535905203 -5.685215714007848 -5.5944588550363274 0 1 0
2258 4 -1.892684837313201 -4.063990704207052 -7.010407764576583 0 2 0
2174 4 -0.8489306996001271 -4.4931284069725415 -7.402656093725889 0 -1 0
1943 4 -2.956778764362503 -4.865748108539533 -7.54352098506124 0 0 0
625 2 0.0 -4.762203155904598 -6.3496042078727974 0 0 0
626 2 0.0 -3.9685026299204984 -5.555903681888697 0 0 0
2745 4 1.7495736407224813 -3.7317992978430694 -6.543479573587908 0 0 -2
2717 4 27.404985381702698 -4.451942080728724 -6.895735265429658 0 0 2
873 3 28.462084392298664 -4.762203155904598 -6.3496042078727974 0 0 0
876 3 28.462084392298664 -3.9685026299204984 -5.555903681888697 0 0 0
874 3 29.234129906360117 -3.9685026299204984 -6.3496042078727974 0 0 0
875 3 29.234129906360117 -4.762203155904598 -5.555903681888698 0 0 0
877 3 30.00617542042159 -4.762203155904598 -6.3496042078727974 0 0 0
878 3 30.00617542042159 -3.9685026299204984 -5.555903681888697 0 0 0
79 1 -26.723038984795554 -3.1748021039363987 -6.3496042078727974 0 0 0
80 1 -25.95099347073401 -2.381101577952299 -6.3496042078727974 0 0 0
81 1 -25.95099347073401 -3.1748021039363987 -5.555903681888697 0 0 0
82 1 -26.723038984795554 -2.381101577952299 -5.555903681888697 0 0 0
83 1 -25.178947956672754 -3.1748021039363987 -6.3496042078727974 0 0 0
84 1 -25.178947956672754 -2.381101577952299 -5.555903681888697 0 0 0
1932 4 -24.393656824657523 -2.3929188368821515 -6.137321204825041 0 2 -1
1838 4 -24.215610715192 -3.1506553587288377 -5.522908483100571 0 0 1
1942 4 -21.24272036245755 -4.187311945204287 -4.502282868431145 0 -1 0
1572 4 -23.26462494999651 -2.7033747734476092 -6.421963622141896 0 0 0
1438 4 -21.632576371635466 -3.707048837261359 -5.580561307477446 0 2 0
2168 4 -13.912138590430505 -2.8900170489858614 -4.283071927494398 0 1 -1
1898 4 -2.472897880544962 -3.2467638832436414 -5.653316867829871 0 1 0
2039 4 -0.927776581776645 -3.163468783785 -5.772848500626436 0 0 -1
627 2 0.0 -3.1748021039363987 -6.3496042078727974 0 0 0
628 2 0.0 -2.381101577952299 -5.555903681888697 0 0 0
1973 4 -1.0032742220801254 -4.001679951558041 -4.401876772397085 0 0 0
2686 4 9.205747940494595 -5.023856802534228 -5.297318167835449 0 -2 0
2738 4 19.146525872141748 -2.3112889784514943 -4.073996569049709 0 1 1
2951 5 26.36285199406084 -3.221162771920823 -5.585031353821558 0 -1 1
879 3 28.462084392298664 -3.1748021039363987 -6.3496042078727974 0 0 0
882 3 28.462084392298664 -2.381101577952299 -5.555903681888697 0 0 0
880 3 29.234129906360117 -2.381101577952299 -6.3496042078727974 0 0 0
881 3 29.234129906360117 -3.1748021039363987 -5.555903681888697 0 0 0
883 3 30.00617542042159 -3.1748021039363987 -6.3496042078727974 0 0 0
884 3 30.00617542042159 -2.381101577952299 -5.555903681888697 0 0 0
85 1 -26.723038984795554 -1.5874010519681994 -6.3496042078727974 0 0 0
86 1 -25.95099347073401 -0.7937005259840997 -6.3496042078727974 0 0 0
87 1 -25.95099347073401 -1.5874010519681994 -5.555903681888697 0 0 0
88 1 -26.723038984795554 -0.7937005259840997 -5.555903681888697 0 0 0
89 1 -25.178947956672754 -1.5874010519681994 -6.3496042078727974 0 0 0
90 1 -25.178947956672754 -0.7937005259840997 -5.555903681888697 0 0 0
1619 4 -24.28850702452351 -1.4026829129392673 -5.824624922260978 0 0 1
1818 4 -24.05083734316777 -0.7134538437420921 -6.621971025478978 0 0 2
2211 4 -23.33125215209054 -1.6882633090157841 -5.791164969740467 0 -2 1
1819 4 -22.704309222325023 -0.1810177050570621 -5.125826548057327 0 1 1
2179 4 -21.54453634763112 -2.3432004421245614 -4.01267609006838 0 -1 0
1543 4 -14.953678604758245 -0.41654755838157104 -6.725258950817421 0 0 0
2095 4 -14.717589562601766 0.541794317554544 -7.427827944828276 0 -1 -2
1978 4 -1.420397616251281 -1.7981807285535287 -6.307609695972591 0 0 0
629 2 0.0 -1.5874010519681994 -6.3496042078727974 0 0 0
630 2 0.0 -0.7937005259840997 -5.555903681888697 0 0 0
885 3 28.462084392298664 -1.5874010519681994 -6.3496042078727974 0 0 0
888 3 28.462084392298664 -0.7937005259840997 -5.555903681888697 0 0 0
886 3 29.234129906360117 -0.7937005259840997 -6.3496042078727974 0 0 0
887 3 29.234129906360117 -1.5874010519681994 -5.555903681888697 0 0 0
889 3 30.00617542042159 -1.5874010519681994 -6.3496042078727974 0 0 0
890 3 30.00617542042159 -0.7937005259840997 -5.555903681888697 0 0 0
91 1 -26.723038984795554 -1.2914815101989334e-18 -6.3496042078727974 0 0 0
93 1 -25.95099347073401 -4.9543158619960525e-19 -5.555903681888698 0 0 0
1586 4 -23.990035875555943 0.4642600068063303 -5.544177655499224 0 1 0
95 1 -25.178947956672754 -1.1832739834629256e-18 -6.3496042078727974 0 0 0
1598 4 -24.293462942092575 -1.0415236260732819 -4.310806289774884 0 -2 0
1656 4 -22.99201577970491 0.03816736373320225 -6.025809800188469 0 -1 0
2202 4 -22.262734558498863 0.7806357177216011 -4.828206943190007 0 2 0
1979 4 -20.593281468832124 -2.002250723809633 -6.034031123362171 0 -1 -2
1910 4 -20.36692452779427 0.6612502491540202 -7.475487576498482 0 0 0
1946 4 -16.790799191168393 0.35614012653668864 -7.393181819616538 0 1 2
2261 4 -18.45441153392869 1.4028628117817097 -6.561705553774454 0 0 0
1686 4 -9.328997759103746 -1.726041846815877 -6.40528222187188 0 0 0
1662 4 -9.131753812225277 -1.370413243387215 -7.349299530959093 0 -1 1
631 2 0.0 0.0 -6.3496042078727974 0 0 0
2791 4 22.733600842212702 -0.09027973521044948 -6.64389834945954 0 2 1
2427 4 24.055194275173488 0.7188432950060477 -6.2095152866847005 0 1 1
891 3 28.462084392298664 -9.482618548765862e-19 -6.3496042078727974 0 0 0
893 3 29.234129906360117 -1.5013341947689436e-18 -5.555903681888697 0 0 0