ITEM: TIMESTEP
0
ITEM: NUMBER OF ATOMS
1050
ITEM: BOX BOUNDS pp pp pp
-1.5000000000000000e+01 1.5000000000000000e+01
-1.5000000000000000e+01 1.5000000000000000e+01
-1.5000000000000000e+01 1.5000000000000000e+01
ITEM: ATOMS id type xs ys zs
4 1 0.165788 0.225983 0.24977
5 2 0.181482 0.197042 0.246208
6 2 0.161376 0.234544 0.218675
44 2 0.24558 0.142508 0.243557
58 1 0.236388 0.228156 0.0471745
59 2 0.229991 0.242001 0.0761491
60 2 0.206034 0.226114 0.0344353
76 1 0.0107747 0.215147 0.14753
77 2 0.038767 0.222785 0.131748
78 2 0.0123698 0.182778 0.145537
106 1 0.0471518 0.0761355 0.0427776
107 2 0.0581506 0.0507544 0.024591
108 2 0.0717026 0.0792355 0.0637963
109 1 0.09078 0.228223 0.0917881
110 2 0.112575 0.222278 0.0676326
264 2 0.0445144 0.212277 0.045754
262 1 0.0240184 0.209052 0.0201672
43 1 0.212691 0.140999 0.246419
208 1 0.145087 0.214905 0.00986231
263 2 0.026135 0.238979 0.00755184
10 1 0.356628 0.114352 0.0648491
11 2 0.363919 0.139201 0.0843424
12 2 0.340581 0.130871 0.0411047
22 1 0.473226 0.210556 0.188487
23 2 0.476297 0.199092 0.219072
24 2 0.493926 0.190366 0.172749
112 1 0.309941 0.145684 0.248742
113 2 0.335513 0.130228 0.235899
282 2 0.337363 0.00428458 0.0864502
150 2 0.285793 0.194815 0.0173915
148 1 0.309886 0.176046 0.00477898
25 1 0.245183 0.272141 0.142978
111 2 0.106664 0.253052 0.107298
7 1 0.0422277 0.350619 0.041877
8 2 0.0507684 0.353795 0.0736766
9 2 0.00987914 0.353928 0.0457414
54 2 0.011095 0.442528 0.236478
70 1 0.150471 0.295201 0.128172
71 2 0.182466 0.289902 0.133981
72 2 0.148952 0.327199 0.135498
85 1 0.208514 0.448054 0.0924147
86 2 0.208853 0.469313 0.0677117
87 2 0.234013 0.459538 0.109883
97 1 0.0493867 0.371293 0.138998
98 2 0.0808053 0.376166 0.147227
99 2 0.0345688 0.382665 0.166186
100 1 0.147173 0.39576 0.148664
101 2 0.147805 0.418543 0.171974
102 2 0.166334 0.410791 0.126201
248 2 0.225329 0.39452 0.018452
371 2 0.0767351 0.467617 0.0390226
52 1 0.00652176 0.414168 0.221165
370 1 0.0718753 0.499076 0.0320985
27 2 0.274472 0.266125 0.129995
26 2 0.255195 0.286381 0.170985
37 1 0.302484 0.319493 0.208984
38 2 0.328044 0.328611 0.227725
39 2 0.314184 0.329273 0.179524
64 1 0.328533 0.426886 0.0739784
65 2 0.357523 0.442432 0.0706193
66 2 0.313991 0.446872 0.0957966
79 1 0.416124 0.470565 0.0829812
80 2 0.420974 0.470604 0.115075
81 2 0.443855 0.486083 0.0742327
82 1 0.339295 0.343065 0.123211
83 2 0.363923 0.332658 0.104762
84 2 0.331295 0.370211 0.106054
103 1 0.285652 0.477742 0.14787
105 2 0.283843 0.460721 0.175614
19 1 0.204405 0.0192046 0.428843
20 2 0.211394 0.0452581 0.447883
21 2 0.228582 0.0221197 0.406466
31 1 0.217115 0.100211 0.483818
32 2 0.242081 0.119449 0.49242
33 2 0.193193 0.122001 0.479251
45 2 0.210204 0.118361 0.269485
68 2 0.0766576 0.187578 0.485299
69 2 0.0810613 0.13794 0.486374
73 1 0.119995 0.111056 0.436305
74 2 0.131427 0.0809583 0.430803
75 2 0.119415 0.12323 0.406053
115 1 0.141893 0.224261 0.346366
116 2 0.170752 0.237932 0.353965
117 2 0.144441 0.225344 0.313486
114 2 0.323135 0.174024 0.257887
2 2 0.439069 0.245289 0.372462
16 1 0.494458 0.246405 0.337261
17 2 0.490249 0.221958 0.315436
28 1 0.277826 0.0275173 0.36275
29 2 0.307572 0.0141099 0.365963
30 2 0.285293 0.0496187 0.340093
34 1 0.386882 0.114599 0.394082
35 2 0.381087 0.107321 0.42552
36 2 0.388355 0.147196 0.395741
46 1 0.377986 0.0317128 0.341758
47 2 0.409038 0.0216267 0.345839
48 2 0.379662 0.0606111 0.357728
49 1 0.486144 0.168247 0.277749
51 2 0.46798 0.143478 0.288702
91 1 0.474908 0.0122653 0.358899
93 2 0.477842 0.028218 0.387185
1 1 0.41018 0.246931 0.388274
13 1 0.222531 0.273483 0.378068
15 2 0.239458 0.286726 0.352876
215 2 0.1613 0.305638 0.491595
88 1 0.14168 0.294676 0.430852
89 2 0.17019 0.291682 0.41434
90 2 0.121529 0.281171 0.408923
14 2 0.24809 0.262428 0.394825
56 2 0.437458 0.467101 0.375019
41 2 0.405879 0.331393 0.259011
96 2 0.274389 0.305436 0.276279
57 2 0.453952 0.466319 0.327679
55 1 0.430522 0.480236 0.346255
95 2 0.314239 0.315107 0.305469
3 2 0.405131 0.278954 0.387791
94 1 0.283461 0.304166 0.307881
40 1 0.377377 0.344061 0.268613
42 2 0.387442 0.372617 0.280867
136 1 0.183374 0.0197701 0.585739
137 2 0.21246 0.0156426 0.571358
138 2 0.170164 0.0427301 0.566822
160 1 0.214659 0.0975566 0.693317
161 2 0.223092 0.128212 0.686085
162 2 0.190834 0.0918092 0.671855
176 2 0.0440076 0.158834 0.567719
123 2 0.0517904 0.241546 0.715212
128 2 0.193591 0.248103 0.68151
175 1 0.0298654 0.165852 0.596569
177 2 0.0102023 0.189968 0.587578
147 2 0.245626 0.0676503 0.742972
67 1 0.0679811 0.162503 0.504036
273 2 0.342338 0.232117 0.656959
146 2 0.288851 0.042169 0.74244
151 1 0.32284 0.171617 0.53385
152 2 0.346539 0.176548 0.556078
153 2 0.304328 0.198172 0.539192
169 1 0.491561 0.139202 0.638591
170 2 0.49233 0.132997 0.670733
272 2 0.354922 0.191677 0.630526
271 1 0.328634 0.205365 0.644638
196 1 0.408864 0.176355 0.59221
197 2 0.426948 0.196038 0.57295
198 2 0.433019 0.162825 0.610199
211 1 0.465459 0.226484 0.524673
213 2 0.487627 0.24915 0.532319
217 1 0.347436 0.00250909 0.723339
212 2 0.449413 0.241533 0.500552
237 2 0.489299 0.121412 0.53347
238 1 0.357166 0.0849428 0.502447
239 2 0.381276 0.0846165 0.524239
240 2 0.341724 0.112741 0.511381
235 1 0.482581 0.130025 0.502909
236 2 0.47709 0.162206 0.506502
121 1 0.0425767 0.260277 0.689853
129 2 0.175174 0.254065 0.634962
122 2 0.0710594 0.260803 0.673926
127 1 0.165209 0.251002 0.665802
159 2 0.228484 0.276872 0.530902
214 1 0.173606 0.313425 0.521337
216 2 0.159672 0.342508 0.525376
225 2 0.23768 0.427421 0.710535
232 1 0.200511 0.467604 0.674402
233 2 0.20875 0.485578 0.647993
234 2 0.171404 0.481675 0.681584
750 2 0.0155988 0.276681 0.542584
206 2 0.260548 0.49844 0.515343
228 2 0.261062 0.341106 0.746536
223 1 0.261697 0.408162 0.722885
142 1 0.436094 0.433344 0.660865
143 2 0.45812 0.436122 0.637043
144 2 0.416072 0.458385 0.653283
157 1 0.259147 0.265018 0.533857
158 2 0.275506 0.292973 0.535717
184 1 0.422961 0.298461 0.653357
185 2 0.442202 0.322177 0.642516
186 2 0.410841 0.313481 0.680112
224 2 0.282133 0.410387 0.697693
253 1 0.396994 0.36248 0.722721
255 2 0.410226 0.389251 0.708909
199 1 0.0784298 0.200943 0.762104
200 2 0.0656257 0.171111 0.75871
124 1 0.0180818 0.0611269 0.901434
126 2 0.0358964 0.0768406 0.923575
181 1 0.238524 0.218639 0.787565
201 2 0.110173 0.194569 0.757449
209 2 0.142375 0.185756 0.995691
244 1 0.0825278 0.00449358 0.986045
221 2 0.24385 0.13569 0.908613
183 2 0.244409 0.249322 0.777621
188 2 0.0659566 0.236724 0.817204
210 2 0.136824 0.233409 0.983644
61 1 0.485371 0.0230609 0.989257
139 1 0.321614 0.205566 0.844202
140 2 0.350207 0.214276 0.831184
141 2 0.322422 0.221919 0.872496
145 1 0.264845 0.0499788 0.763232
149 2 0.296841 0.16927 0.975237
166 1 0.365243 0.0220318 0.826875
167 2 0.35842 0.0537851 0.8241
168 2 0.38499 0.0223974 0.85311
182 2 0.265764 0.212423 0.804792
218 2 0.353472 0.00429129 0.755568
220 1 0.271222 0.151803 0.915684
222 2 0.281404 0.160213 0.88563
259 1 0.422914 0.0384338 0.915709
260 2 0.443882 0.0348298 0.941156
261 2 0.41743 0.0704027 0.918618
479 2 0.258851 0.00452625 0.814429
231 2 0.100379 0.251669 0.9002
130 1 0.173062 0.336264 0.893878
131 2 0.202785 0.327699 0.882104
132 2 0.182676 0.361414 0.91249
133 1 0.211495 0.446997 0.85686
134 2 0.208126 0.479294 0.85612
135 2 0.185492 0.439752 0.875881
163 1 0.0776472 0.359551 0.844992
164 2 0.110445 0.359429 0.845529
165 2 0.0721684 0.360624 0.877403
187 1 0.0613265 0.253356 0.845328
189 2 0.0605362 0.284127 0.83414
190 1 0.133427 0.438772 0.916866
191 2 0.113254 0.415234 0.927939
192 2 0.136267 0.457199 0.943594
270 2 0.0280648 0.437971 0.786672
269 2 0.0336647 0.393994 0.810164
268 1 0.00988372 0.412762 0.796628
226 1 0.244491 0.315922 0.759812
227 2 0.214042 0.325751 0.753426
229 1 0.120401 0.258496 0.925602
230 2 0.141978 0.278698 0.910866
247 1 0.226485 0.405087 0.987648
256 1 0.0791858 0.359427 0.949293
257 2 0.069628 0.356163 0.980883
258 2 0.0995076 0.33372 0.947564
249 2 0.257401 0.41496 0.985825
251 2 0.441235 0.332803 0.848584
241 1 0.262095 0.320636 0.856981
266 2 0.403849 0.405719 0.844026
254 2 0.397173 0.37069 0.754618
265 1 0.39161 0.386034 0.820885
252 2 0.468761 0.357142 0.882253
250 1 0.464257 0.326634 0.871025
243 2 0.257906 0.312197 0.825418
242 2 0.279292 0.348363 0.852937
172 1 0.456905 0.426934 0.896213
173 2 0.447774 0.431935 0.92703
174 2 0.47992 0.450519 0.893875
178 1 0.292894 0.407746 0.818691
179 2 0.28399 0.410768 0.787023
180 2 0.266678 0.422062 0.833195
194 2 0.47409 0.260653 0.991846
267 2 0.359524 0.393455 0.822931
283 1 0.156697 0.545924 0.051921
284 2 0.189239 0.55057 0.0512322
285 2 0.148861 0.564595 0.0256852
287 2 0.108513 0.739583 0.249593
318 2 0.238022 0.653221 0.200359
325 1 0.0559167 0.649618 0.161808
326 2 0.0758467 0.631295 0.180784
327 2 0.0720151 0.677813 0.162277
349 1 0.207808 0.658147 0.0157358
350 2 0.190941 0.682886 0.0284581
351 2 0.227859 0.652112 0.0415409
367 1 0.112368 0.530701 0.143216
368 2 0.128309 0.536429 0.115014
369 2 0.0826335 0.523536 0.13208
372 2 0.101751 0.511701 0.0379771
385 1 0.115569 0.594511 0.218431
386 2 0.118495 0.571132 0.19525
387 2 0.115614 0.575586 0.245316
503 2 0.0303316 0.551305 0.03193
502 1 0.0170977 0.581523 0.0335072
876 2 0.00241221 0.620166 0.134937
504 2 0.0332984 0.596051 0.00933847
301 1 0.258142 0.554563 0.0271505
302 2 0.285462 0.559943 0.0441015
316 1 0.270485 0.649866 0.200603
317 2 0.279386 0.680125 0.210833
319 1 0.302942 0.55633 0.202197
320 2 0.321027 0.561009 0.228789
321 2 0.290837 0.586853 0.198574
364 1 0.317848 0.720292 0.0248541
365 2 0.309983 0.698303 0.0014758
376 1 0.393841 0.704964 0.196617
377 2 0.367462 0.723965 0.19315
378 2 0.387422 0.692025 0.225761
388 1 0.474242 0.65369 0.160752
389 2 0.495011 0.679234 0.158892
390 2 0.446539 0.669455 0.169087
394 1 0.269923 0.659389 0.0898556
395 2 0.280215 0.657813 0.12084
396 2 0.290343 0.682019 0.0773052
307 1 0.289684 0.741571 0.228371
366 2 0.319401 0.747275 0.00674028
104 2 0.291973 0.507628 0.160953
289 1 0.0215158 0.891089 0.116416
290 2 0.044275 0.8778 0.135627
291 2 0.0390162 0.912805 0.0994988
374 2 0.167063 0.910153 0.216687
391 1 0.213003 0.789681 0.189537
392 2 0.185161 0.778108 0.203004
393 2 0.202782 0.819057 0.179448
403 1 0.181769 0.890672 0.153604
404 2 0.17539 0.891505 0.121736
405 2 0.212094 0.904335 0.152795
438 2 0.210751 0.837392 0.00473367
286 1 0.133128 0.757935 0.238718
373 1 0.16325 0.927844 0.244302
375 2 0.166652 0.957798 0.232079
437 2 0.240074 0.877724 0.00627363
280 1 0.336582 0.971618 0.0858754
281 2 0.352406 0.96615 0.0574266
292 1 0.300994 0.887367 0.0282915
293 2 0.32436 0.90354 0.0118174
294 2 0.302784 0.903189 0.0568534
343 1 0.43842 0.807833 0.0320654
344 2 0.417137 0.800562 0.055675
345 2 0.449662 0.836774 0.0432203
408 2 0.292927 0.944959 0.129998
407 2 0.285913 0.919192 0.173039
397 1 0.311821 0.896412 0.227634
398 2 0.341124 0.901762 0.241498
399 2 0.299834 0.874143 0.248092
400 1 0.490429 0.880703 0.0777891
402 2 0.480401 0.891422 0.106937
406 1 0.269074 0.929365 0.146391
309 2 0.266737 0.759494 0.212401
802 1 0.494217 0.902032 0.243103
120 2 0.0891323 0.513691 0.318511
893 2 0.00254424 0.609155 0.250398
119 2 0.136061 0.528785 0.328231
118 1 0.114473 0.527314 0.303421
276 2 0.0422843 0.625197 0.491723
295 1 0.117962 0.618107 0.398504
296 2 0.123506 0.617668 0.430774
297 2 0.133457 0.590214 0.390719
328 1 0.0785803 0.740843 0.340209
355 1 0.0428845 0.648497 0.342014
356 2 0.0687621 0.636747 0.359005
357 2 0.0533738 0.679504 0.337406
379 1 0.176106 0.539574 0.381401
380 2 0.193446 0.523791 0.404063
381 2 0.199213 0.560246 0.36968
382 1 0.233384 0.610079 0.345761
384 2 0.210975 0.630749 0.334152
829 1 0.0095476 0.647938 0.440278
830 2 0.0122224 0.647138 0.407618
894 2 0.0073846 0.610166 0.299989
475 1 0.149972 0.585951 0.491393
476 2 0.152321 0.553508 0.49488
421 1 0.365414 0.584888 0.494187
298 1 0.442904 0.609679 0.437398
299 2 0.470141 0.592746 0.43009
300 2 0.456237 0.631499 0.458603
311 2 0.470205 0.639912 0.309278
322 1 0.420878 0.65095 0.349494
323 2 0.405668 0.677725 0.359822
324 2 0.423619 0.634043 0.377678
383 2 0.260833 0.623286 0.334435
423 2 0.344155 0.587875 0.469686
422 2 0.393347 0.590559 0.477473
288 2 0.141952 0.772269 0.267077
330 2 0.0665964 0.756234 0.366663
818 2 0.0126116 0.757712 0.445467
277 1 0.229583 0.832272 0.388023
278 2 0.230312 0.843866 0.418489
411 2 0.0512666 0.817592 0.4483
304 1 0.156088 0.799405 0.325534
305 2 0.183667 0.793481 0.342442
306 2 0.157512 0.832365 0.324879
410 2 0.0929844 0.807188 0.423174
313 1 0.209029 0.930541 0.478218
314 2 0.231253 0.942028 0.499594
315 2 0.204335 0.957671 0.460129
329 2 0.105171 0.759542 0.334881
409 1 0.061442 0.79917 0.422619
337 1 0.178579 0.897489 0.335426
338 2 0.177801 0.927109 0.348999
339 2 0.174327 0.906557 0.303761
279 2 0.215507 0.857978 0.372745
362 2 0.477959 0.773973 0.318765
348 2 0.462791 0.837416 0.446911
308 2 0.289183 0.757368 0.257491
358 1 0.400072 0.912489 0.270415
360 2 0.402124 0.943843 0.279072
359 2 0.429549 0.908454 0.256047
361 1 0.46205 0.79778 0.33527
363 2 0.479081 0.823729 0.324882
346 1 0.484836 0.839849 0.423147
347 2 0.472302 0.819544 0.40048
331 1 0.283729 0.793955 0.312144
332 2 0.313279 0.807288 0.318483
333 2 0.268208 0.804515 0.339062
336 2 0.490314 0.92102 0.350625
340 1 0.370245 0.834219 0.324769
341 2 0.380163 0.861472 0.308891
342 2 0.399037 0.819438 0.33114
427 1 0.147766 0.606688 0.625283
428 2 0.175653 0.624153 0.623281
429 2 0.127368 0.625593 0.608258
205 1 0.22853 0.50488 0.511693
477 2 0.179197 0.594775 0.502855
481 1 0.214145 0.537029 0.604069
482 2 0.234528 0.56271 0.606442
483 2 0.185546 0.552053 0.610968
487 1 0.243142 0.63671 0.608626
537 2 0.103282 0.54377 0.704119
536 2 0.127199 0.55546 0.662333
535 1 0.122397 0.529214 0.681649
489 2 0.24567 0.669616 0.607488
274 1 0.0578351 0.615913 0.519489
207 2 0.221542 0.508865 0.543562
275 2 0.0868837 0.60686 0.507287
460 1 0.0753939 0.58977 0.745037
461 2 0.0510769 0.610949 0.73815
972 2 0.00861704 0.612085 0.560796
991 1 0.00106317 0.653096 0.729582
202 1 0.326209 0.504962 0.542782
508 1 0.254368 0.733578 0.606411
433 1 0.382003 0.596194 0.688282
434 2 0.409903 0.59739 0.706124
435 2 0.364508 0.617009 0.706613
459 2 0.388478 0.683098 0.748628
466 1 0.335691 0.622805 0.582936
467 2 0.361469 0.61951 0.602716
468 2 0.347795 0.611989 0.554231
469 1 0.294113 0.732102 0.711053
470 2 0.281915 0.715406 0.685724
471 2 0.312411 0.708818 0.725738
488 2 0.274593 0.630679 0.600308
501 2 0.476398 0.681368 0.528951
511 1 0.374596 0.510687 0.640736
512 2 0.382256 0.540004 0.654159
513 2 0.345242 0.50662 0.654168
203 2 0.341354 0.529631 0.527239
496 1 0.461466 0.603982 0.743093
498 2 0.488723 0.620256 0.73432
204 2 0.34488 0.50222 0.569504
499 1 0.48566 0.66943 0.500129
443 2 0.0253806 0.832898 0.530556
444 2 0.0398957 0.878126 0.514103
510 2 0.231217 0.755893 0.611551
517 1 0.143102 0.926947 0.575453
518 2 0.160366 0.92363 0.548026
519 2 0.153399 0.956434 0.585589
532 1 0.0466518 0.77813 0.658089
533 2 0.044438 0.756281 0.682187
534 2 0.0691823 0.798407 0.669938
1038 2 0.00459503 0.911254 0.628683
442 1 0.0358881 0.847604 0.503276
539 2 0.475554 0.837073 0.641742
419 2 0.310463 0.987569 0.667534
509 2 0.275737 0.752277 0.589425
418 1 0.289502 0.979094 0.643508
420 2 0.261319 0.986423 0.658169
424 1 0.375251 0.863792 0.602638
425 2 0.408118 0.867064 0.605706
426 2 0.365882 0.893689 0.611816
430 1 0.300791 0.810705 0.565819
431 2 0.289989 0.832827 0.544539
432 2 0.32696 0.826863 0.577889
538 1 0.470259 0.864279 0.624309
445 1 0.435693 0.962681 0.70034
446 2 0.443736 0.931923 0.693154
447 2 0.465138 0.976638 0.69854
463 1 0.27094 0.971187 0.546682
464 2 0.277615 0.969199 0.579027
465 2 0.296428 0.989002 0.536926
472 1 0.406607 0.778111 0.653112
473 2 0.397897 0.801156 0.63158
474 2 0.377628 0.7701 0.665527
527 2 0.282774 0.834964 0.727147
219 2 0.376833 0.99109 0.713322
528 2 0.296809 0.788572 0.740023
439 1 0.158415 0.659019 0.89414
440 2 0.189325 0.660991 0.882695
441 2 0.147875 0.689035 0.887472
462 2 0.0919088 0.606866 0.767148
505 1 0.142642 0.600277 0.971882
506 2 0.165557 0.620595 0.98414
507 2 0.140551 0.613248 0.941609
514 1 0.249608 0.677309 0.863165
516 2 0.249035 0.710064 0.857378
515 2 0.268809 0.668184 0.838441
457 1 0.358559 0.671553 0.754587
458 2 0.361136 0.66907 0.787564
491 2 0.409364 0.728957 0.972176
497 2 0.475166 0.581826 0.763039
523 1 0.377884 0.678559 0.849699
524 2 0.40194 0.671155 0.870322
525 2 0.366785 0.706584 0.863024
529 1 0.285645 0.660257 0.954745
530 2 0.255837 0.658054 0.968558
531 2 0.277241 0.664011 0.923099
303 2 0.264847 0.570791 0.999675
246 2 0.0627458 0.99757 0.961085
412 1 0.0336553 0.907977 0.853771
413 2 0.0652886 0.912628 0.859485
414 2 0.0301682 0.876544 0.863477
436 1 0.209399 0.869078 0.997692
448 1 0.00588924 0.820052 0.884352
451 1 0.154407 0.947052 0.946601
452 2 0.175565 0.954131 0.922854
453 2 0.169263 0.921133 0.960345
245 2 0.108853 0.986608 0.977089
1014 2 0.495515 0.788635 0.801269
526 1 0.297082 0.819537 0.751978
490 1 0.406007 0.756171 0.954634
522 2 0.44591 0.965604 0.91699
63 2 0.487715 0.990484 0.990347
478 1 0.270867 0.984589 0.837689
415 1 0.359206 0.849668 0.821219
416 2 0.341373 0.838376 0.795744
417 2 0.352981 0.881487 0.818568
454 1 0.372319 0.952496 0.995221
455 2 0.400121 0.942231 0.980555
456 2 0.36443 0.976755 0.974798
480 2 0.302313 0.993443 0.836215
484 1 0.255741 0.770757 0.84363
485 2 0.285485 0.773745 0.857667
486 2 0.257987 0.793881 0.820675
492 2 0.418526 0.778038 0.975956
493 1 0.347432 0.771067 0.879013
494 2 0.367415 0.771745 0.905454
495 2 0.356787 0.79881 0.863589
520 1 0.450463 0.939111 0.935733
521 2 0.463267 0.918165 0.914347
601 1 0.723762 0.179168 0.130608
602 2 0.749956 0.160832 0.137196
603 2 0.721366 0.197246 0.157584
622 1 0.661729 0.158371 0.0577314
623 2 0.680835 0.166318 0.0835596
624 2 0.679988 0.170648 0.0338918
631 1 0.589424 0.0988708 0.0815301
632 2 0.612008 0.122053 0.0739473
633 2 0.603223 0.0731739 0.0670758
634 1 0.528172 0.137076 0.149259
635 2 0.55408 0.130025 0.130132
636 2 0.507991 0.114162 0.138308
195 2 0.517154 0.24188 0.0104865
62 2 0.508455 0.0317823 0.0105122
553 1 0.84898 0.0178047 0.218129
554 2 0.865835 0.0405232 0.234026
566 2 0.968232 0.239706 0.191116
583 1 0.857776 0.210457 0.0972152
584 2 0.881788 0.232137 0.103631
585 2 0.832828 0.23077 0.0929508
592 1 0.87488 0.111497 0.0919359
593 2 0.868326 0.14365 0.0953744
594 2 0.8985 0.113089 0.0694866
616 1 0.968335 0.127586 0.0144974
618 2 0.992186 0.107977 0.0262697
649 1 0.807009 0.042971 0.13147
650 2 0.823154 0.0353911 0.159184
651 2 0.828442 0.0639729 0.117841
621 2 0.910237 0.209549 0.248333
617 2 0.984456 0.156426 0.0162663
555 2 0.828284 0.00793244 0.241928
663 2 0.633772 0.422143 0.138274
595 1 0.554972 0.416077 0.217545
596 2 0.586553 0.414257 0.207898
597 2 0.54214 0.426253 0.189499
662 2 0.673054 0.426857 0.169679
604 1 0.612731 0.427497 0.0747233
605 2 0.627139 0.411708 0.0494288
606 2 0.584312 0.434919 0.0608376
661 1 0.640846 0.419682 0.170484
628 1 0.725886 0.3426 0.21763
630 2 0.715895 0.368023 0.199387
646 1 0.739327 0.43233 0.169124
557 2 0.676435 0.30953 0.247508
647 2 0.768147 0.417471 0.1747
565 1 0.941022 0.251026 0.205987
567 2 0.928023 0.267344 0.180728
580 1 0.93596 0.360142 0.0489445
581 2 0.920578 0.388536 0.053118
582 2 0.942146 0.361896 0.0163487
589 1 0.81972 0.375414 0.194483
590 2 0.842127 0.382575 0.171859
591 2 0.837384 0.380233 0.221625
607 1 0.924745 0.284029 0.110876
608 2 0.926318 0.310658 0.0913021
609 2 0.955965 0.274408 0.109338
610 1 0.836248 0.482912 0.168757
612 2 0.829382 0.484168 0.201249
629 2 0.757469 0.34186 0.208442
648 2 0.750714 0.46276 0.166101
53 2 0.977346 0.405543 0.232849
541 1 0.731923 0.0680939 0.333136
542 2 0.704719 0.0540823 0.320872
543 2 0.720276 0.0974796 0.342052
547 1 0.646852 0.24372 0.340569
569 2 0.622943 0.0189797 0.306087
570 2 0.655236 0.00594314 0.26962
586 1 0.574149 0.187611 0.374898
587 2 0.597311 0.210548 0.369185
588 2 0.548032 0.206793 0.37977
613 1 0.564051 0.0450079 0.329204
614 2 0.579987 0.056743 0.355696
615 2 0.563781 0.0726457 0.310969
625 1 0.617941 0.0936397 0.395652
626 2 0.642886 0.11298 0.38607
627 2 0.598786 0.117379 0.407692
640 1 0.688663 0.155406 0.360758
641 2 0.674024 0.183585 0.351669
642 2 0.714983 0.168136 0.375395
655 1 0.576703 0.134471 0.293762
656 2 0.601961 0.147887 0.278088
657 2 0.578104 0.151414 0.32224
834 2 0.63919 0.0292317 0.408386
92 2 0.504125 0.0192885 0.345294
50 2 0.516063 0.154172 0.277567
833 2 0.660232 0.00261773 0.370786
568 1 0.65525 0.0148976 0.300967
544 1 0.795563 0.184705 0.460164
545 2 0.782832 0.170405 0.48642
546 2 0.784707 0.215379 0.465463
550 1 0.827778 0.0871575 0.460605
551 2 0.814084 0.0848743 0.431173
552 2 0.838122 0.118238 0.459524
575 2 0.778492 0.0251771 0.30987
619 1 0.905237 0.181744 0.265336
620 2 0.934127 0.16775 0.261409
664 1 0.504221 0.436065 0.299422
666 2 0.528178 0.458128 0.30496
18 2 0.512284 0.267134 0.319592
548 2 0.665185 0.265548 0.357959
549 2 0.644749 0.260312 0.311745
665 2 0.51727 0.42206 0.272514
556 1 0.647851 0.300162 0.261129
558 2 0.629126 0.324309 0.250012
562 1 0.543467 0.372042 0.448549
563 2 0.561834 0.381768 0.423562
564 2 0.551558 0.394795 0.470932
573 2 0.744437 0.383907 0.275344
577 1 0.71094 0.49794 0.294948
579 2 0.724104 0.468179 0.28875
660 2 0.703475 0.341661 0.374807
652 1 0.643688 0.445113 0.352344
653 2 0.617999 0.458595 0.337095
654 2 0.667707 0.457783 0.334198
658 1 0.7046 0.309596 0.380703
659 2 0.734702 0.308429 0.393215
754 1 0.746146 0.261094 0.498945
805 1 0.578203 0.499347 0.299238
755 2 0.737395 0.292939 0.499636
645 2 0.914947 0.451398 0.279255
559 1 0.782605 0.378031 0.380892
560 2 0.814457 0.373832 0.372142
561 2 0.786657 0.393842 0.409119
571 1 0.751507 0.410913 0.292449
572 2 0.760779 0.397558 0.321138
598 1 0.822904 0.491366 0.265342
600 2 0.795515 0.488793 0.282724
637 1 0.875714 0.37558 0.357377
638 2 0.9034 0.35897 0.360637
639 2 0.882854 0.391769 0.329519
643 1 0.892897 0.426741 0.274688
644 2 0.864742 0.44417 0.270609
733 1 0.621714 0.198798 0.688623
734 2 0.632568 0.219032 0.712009
735 2 0.596113 0.184993 0.703432
745 1 0.663547 0.0566049 0.63378
746 2 0.666869 0.0245196 0.637633
747 2 0.683951 0.0680521 0.656456
769 1 0.710692 0.192063 0.64178
770 2 0.706209 0.172012 0.615872
771 2 0.679596 0.194261 0.652507
784 1 0.700354 0.124978 0.570491
785 2 0.682135 0.101803 0.585086
786 2 0.723716 0.105751 0.557233
756 2 0.726753 0.249993 0.522582
781 1 0.539917 0.128757 0.739535
782 2 0.549383 0.0992095 0.749163
171 2 0.523097 0.145659 0.633791
670 1 0.80159 0.0839246 0.666726
671 2 0.831657 0.0826801 0.679197
672 2 0.797037 0.116419 0.666568
685 1 0.88377 0.140959 0.70634
686 2 0.856359 0.157743 0.698712
687 2 0.906154 0.159855 0.69213
705 2 0.921861 0.000358862 0.70434
715 1 0.771887 0.0651538 0.538561
716 2 0.793676 0.0579514 0.561685
717 2 0.79177 0.0688434 0.512423
736 1 0.802497 0.185185 0.673258
737 2 0.815129 0.214576 0.664949
738 2 0.771131 0.189585 0.663231
759 2 0.898828 0.0839014 0.735097
757 1 0.906685 0.0544975 0.747982
688 1 0.707955 0.350335 0.514409
689 2 0.715828 0.372581 0.536815
690 2 0.679549 0.361782 0.503286
730 1 0.572113 0.446622 0.508126
731 2 0.591004 0.472941 0.512549
732 2 0.554133 0.448678 0.535616
751 1 0.538237 0.482809 0.59484
753 2 0.54122 0.49051 0.626245
764 2 0.980747 0.268428 0.668741
676 1 0.899475 0.449156 0.579254
677 2 0.917442 0.428107 0.596805
678 2 0.912572 0.477964 0.589101
697 1 0.852682 0.268077 0.656123
698 2 0.885666 0.268339 0.655729
699 2 0.846917 0.289713 0.632461
706 1 0.924324 0.369958 0.6476
707 2 0.929077 0.374984 0.679862
708 2 0.935488 0.339048 0.646362
729 2 0.797084 0.291231 0.728684
748 1 0.990253 0.282529 0.562126
749 2 0.978691 0.31004 0.549116
763 1 0.952961 0.274514 0.651465
765 2 0.965166 0.272382 0.620631
766 1 0.831182 0.395514 0.630838
767 2 0.860577 0.384428 0.640429
768 2 0.841122 0.417127 0.60834
691 1 0.93697 0.37376 0.744472
873 2 0.865944 0.495606 0.528946
700 1 0.549985 0.165115 0.832049
701 2 0.576906 0.164384 0.850309
702 2 0.534282 0.190454 0.846577
712 1 0.602954 0.0219204 0.984938
713 2 0.632299 0.0166416 0.970208
714 2 0.593225 0.0481023 0.968122
724 1 0.685204 0.244256 0.758699
725 2 0.699842 0.215131 0.758644
744 2 0.740449 0.116363 0.888442
796 1 0.516728 0.241311 0.885192
778 1 0.684615 0.0129767 0.933046
779 2 0.713522 0.000956723 0.923097
780 2 0.689301 0.0431426 0.920587
783 2 0.538876 0.143779 0.768962
193 1 0.503181 0.249793 0.982157
742 1 0.71771 0.0925513 0.88608
743 2 0.737303 0.0677648 0.877108
798 2 0.512293 0.242485 0.917844
154 1 0.97107 0.0904126 0.815291
681 2 0.802129 0.0241441 0.88915
709 1 0.857745 0.0628351 0.879744
710 2 0.883442 0.0722115 0.898539
711 2 0.873524 0.0522852 0.853151
721 1 0.801321 0.143654 0.890644
722 2 0.820261 0.116846 0.887255
723 2 0.823939 0.166398 0.89607
795 2 0.938659 0.110764 0.958971
794 2 0.941806 0.130334 0.913215
793 1 0.932434 0.102177 0.927615
758 2 0.930117 0.0644354 0.769071
775 1 0.964605 0.180394 0.877125
776 2 0.941161 0.203301 0.882117
777 2 0.990677 0.199984 0.875036
125 2 0.987897 0.0680554 0.912512
975 2 0.817255 0.0107276 0.771092
156 2 0.969192 0.119184 0.83082
155 2 0.991632 0.0746119 0.835494
679 1 0.77365 0.00912871 0.881867
797 2 0.500538 0.268966 0.87745
694 1 0.66132 0.291003 0.84472
695 2 0.66258 0.270303 0.819153
696 2 0.668598 0.318798 0.829481
718 1 0.645468 0.384932 0.992669
719 2 0.63564 0.357902 0.976242
720 2 0.672596 0.391541 0.976064
726 2 0.710842 0.262902 0.750003
739 1 0.625629 0.308 0.935204
740 2 0.638767 0.301479 0.905558
741 2 0.598892 0.28943 0.933724
682 1 0.732707 0.451014 0.832737
684 2 0.738188 0.45884 0.864252
773 2 0.774939 0.489255 0.950057
789 2 0.905442 0.27716 0.914259
791 2 0.875037 0.424441 0.772609
787 1 0.898173 0.250203 0.89752
788 2 0.865336 0.25363 0.895532
953 2 0.853556 0.483033 0.837764
667 1 0.941084 0.396339 0.866932
668 2 0.964467 0.403376 0.844828
669 2 0.915126 0.410312 0.852855
673 1 0.964474 0.371224 0.957871
790 1 0.883281 0.45052 0.790633
675 2 0.953239 0.379946 0.927983
683 2 0.76237 0.455844 0.820504
692 2 0.93861 0.343795 0.757214
693 2 0.963178 0.387679 0.75912
727 1 0.784498 0.276986 0.755226
728 2 0.809 0.257213 0.763484
760 1 0.800798 0.263798 0.89309
761 2 0.783574 0.273544 0.867171
762 2 0.776812 0.254834 0.913247
772 1 0.764787 0.483345 0.919758
792 2 0.90649 0.46292 0.771334
774 2 0.791919 0.491168 0.90245
674 2 0.996504 0.371664 0.951558
930 2 0.679907 0.719904 0.138078
820 1 0.534486 0.575912 0.158132
821 2 0.51125 0.599534 0.158441
822 2 0.552013 0.585375 0.184038
928 1 0.698171 0.723351 0.111197
838 1 0.633404 0.69318 0.195209
839 2 0.617889 0.66929 0.212173
840 2 0.639335 0.712917 0.221184
850 1 0.743481 0.555625 0.221433
852 2 0.720553 0.572728 0.204872
853 1 0.544338 0.72284 0.160821
854 2 0.574527 0.712589 0.169147
855 2 0.551506 0.745817 0.138887
924 2 0.659202 0.599776 0.147
923 2 0.672073 0.64005 0.174849
922 1 0.681782 0.609323 0.168371
901 1 0.606344 0.73363 0.0130431
902 2 0.620527 0.729417 0.0420053
353 2 0.518629 0.535361 0.0609693
352 1 0.50382 0.517017 0.0834258
848 2 0.513832 0.731423 0.249514
904 1 0.583767 0.624917 0.245888
354 2 0.51373 0.532462 0.110949
851 2 0.769882 0.571474 0.210133
857 2 0.944037 0.73932 0.177175
859 1 0.901168 0.55374 0.158427
860 2 0.929155 0.568342 0.148508
861 2 0.882801 0.580443 0.162693
883 1 0.820502 0.543474 0.0903199
884 2 0.852848 0.544089 0.0866005
885 2 0.818459 0.518691 0.111805
907 1 0.79262 0.695735 0.126444
908 2 0.805731 0.705619 0.0983646
909 2 0.760598 0.701347 0.120401
910 1 0.814759 0.608204 0.167577
911 2 0.809216 0.591821 0.139564
912 2 0.807287 0.638688 0.157302
611 2 0.863352 0.502225 0.1666
856 1 0.927083 0.742867 0.204605
875 2 0.988739 0.597459 0.0917936
887 2 0.866602 0.594482 0.247577
874 1 0.977041 0.603254 0.122172
903 2 0.582043 0.754615 0.0211985
799 1 0.538375 0.79787 0.0393671
800 2 0.53362 0.827495 0.0525931
801 2 0.507693 0.792182 0.0291293
803 2 0.524239 0.905076 0.23132
929 2 0.698262 0.756263 0.10843
826 1 0.703728 0.821636 0.115136
827 2 0.730081 0.814171 0.133964
828 2 0.707086 0.853923 0.113115
841 1 0.738929 0.969904 0.121572
868 1 0.572359 0.945908 0.0378725
869 2 0.580265 0.971706 0.0187066
870 2 0.600919 0.94199 0.0529971
401 2 0.509423 0.905671 0.0680188
843 2 0.752819 0.99909 0.127856
858 2 0.901682 0.760588 0.19497
814 1 0.952957 0.841432 0.0597028
815 2 0.930588 0.854316 0.0800478
816 2 0.979634 0.852952 0.0748964
842 2 0.763649 0.956208 0.105737
927 2 0.790037 0.762146 0.169259
844 1 0.921569 0.896507 0.136837
845 2 0.954077 0.900944 0.137349
846 2 0.910997 0.922498 0.153319
926 2 0.788969 0.803597 0.19784
925 1 0.777869 0.792477 0.168751
899 2 0.590219 0.650841 0.492648
310 1 0.500712 0.635596 0.296917
806 2 0.581453 0.529959 0.310642
807 2 0.58841 0.504101 0.268753
808 1 0.637078 0.744645 0.27793
835 1 0.538588 0.571448 0.428008
836 2 0.540484 0.540865 0.439264
837 2 0.556887 0.587788 0.450183
847 1 0.515138 0.732784 0.282125
849 2 0.511594 0.700733 0.289275
880 1 0.677941 0.553434 0.368686
881 2 0.691182 0.534893 0.391939
882 2 0.690058 0.538204 0.341928
895 1 0.590918 0.586933 0.341795
896 2 0.621848 0.579476 0.351804
897 2 0.573484 0.584889 0.369787
898 1 0.601376 0.620287 0.486468
900 2 0.629422 0.627922 0.471692
905 2 0.596261 0.614031 0.274221
906 2 0.553451 0.631009 0.257225
312 2 0.509583 0.609266 0.314068
578 2 0.720018 0.514126 0.267552
1017 2 0.576726 0.739805 0.478504
500 2 0.514999 0.684185 0.496911
1015 1 0.573615 0.713736 0.49796
865 1 0.937773 0.511923 0.285587
817 1 0.985596 0.742726 0.456973
872 2 0.872467 0.53617 0.499796
831 2 0.997393 0.678231 0.444753
866 2 0.960758 0.535516 0.282823
867 2 0.911841 0.531926 0.287254
886 1 0.860652 0.581058 0.276781
888 2 0.859804 0.607959 0.295045
892 1 0.992114 0.592726 0.276468
599 2 0.829563 0.52316 0.271382
334 1 0.503965 0.893476 0.339702
804 2 0.501047 0.897082 0.275025
810 2 0.608826 0.750768 0.293149
809 2 0.658834 0.757123 0.298717
832 1 0.650177 0.998763 0.401881
877 1 0.641197 0.892386 0.389343