ITEM: TIMESTEP
0
ITEM: NUMBER OF ATOMS
1050
ITEM: BOX BOUNDS pp pp pp
-1.5000000000000000e+01 1.5000000000000000e+01
-1.5000000000000000e+01 1.5000000000000000e+01
-1.5000000000000000e+01 1.5000000000000000e+01
ITEM: ATOMS id type xs ys zs
40 1 0.202042 0.203213 0.247636
41 2 0.21551 0.215406 0.219772
168 2 0.242552 0.238259 0.136157
511 1 0.239894 0.228747 0.0731396
661 1 0.02271 0.201486 0.162922
662 2 0.0248368 0.170846 0.152287
663 2 0.0547158 0.209829 0.160103
862 1 0.076099 0.0414625 0.0539573
863 2 0.097447 0.0619886 0.0673914
864 2 0.0486792 0.0503926 0.0696003
922 1 0.117033 0.215599 0.14396
923 2 0.147932 0.206357 0.148411
924 2 0.122379 0.246443 0.132976
944 2 0.0366383 0.215147 0.00575207
512 2 0.215773 0.233431 0.0509455
166 1 0.242477 0.241443 0.169191
703 1 0.168667 0.241821 0.00595036
88 1 0.335989 0.10023 0.075272
89 2 0.357348 0.120939 0.088313
90 2 0.320042 0.120491 0.054893
139 1 0.478625 0.20585 0.187069
140 2 0.484341 0.197926 0.218168
141 2 0.498 0.183681 0.172227
513 2 0.260435 0.210526 0.0548622
550 1 0.463618 0.00430473 0.000795878
123 2 0.334342 0.0178829 0.0866106
326 2 0.278725 0.142073 0.244416
274 1 0.301416 0.176993 0.0137757
275 2 0.325522 0.19554 0.00204255
632 2 0.492372 0.224355 0.00331028
436 1 0.734817 0.18703 0.125705
437 2 0.730318 0.204343 0.152828
598 1 0.6707 0.15426 0.0602793
599 2 0.689869 0.163421 0.0857169
600 2 0.687166 0.168383 0.0361367
664 1 0.592751 0.102476 0.0845239
665 2 0.601897 0.0757136 0.0686249
666 2 0.617528 0.122843 0.0760572
706 1 0.541969 0.135423 0.1614
707 2 0.552704 0.124102 0.132259
708 2 0.569045 0.131315 0.178921
1012 1 0.990097 0.0804232 0.0988909
438 2 0.766523 0.194349 0.119532
331 1 0.828606 0.208083 0.112166
332 2 0.852793 0.186161 0.10827
333 2 0.846132 0.235955 0.109158
376 1 0.897334 0.135883 0.0940187
377 2 0.873989 0.112495 0.0953762
378 2 0.9101 0.130814 0.0642346
592 1 0.961929 0.121409 0.0160159
594 2 0.977091 0.150113 0.00907279
919 1 0.823478 0.0725896 0.107121
920 2 0.800103 0.0900789 0.121711
921 2 0.809943 0.0425199 0.109238
1013 2 0.968916 0.0983942 0.116265
1014 2 0.982706 0.0927404 0.0689975
162 2 0.975969 0.244545 0.169045
1046 2 0.977345 0.015371 0.117687
46 1 0.0569413 0.351114 0.0726409
47 2 0.0536614 0.382807 0.0814295
48 2 0.0267744 0.344888 0.0620915
73 1 0.0415528 0.443639 0.0990963
74 2 0.0580962 0.466087 0.116771
75 2 0.043149 0.459336 0.0701118
414 2 0.0172299 0.428576 0.244366
622 1 0.134395 0.304551 0.110373
623 2 0.160161 0.317619 0.0955409
624 2 0.109641 0.321636 0.0966998
712 1 0.236994 0.468111 0.0668477
713 2 0.233965 0.499073 0.0555129
714 2 0.24564 0.474909 0.0982238
838 1 0.0296816 0.391292 0.190109
839 2 0.0386884 0.36087 0.183163
840 2 0.0331661 0.405706 0.160983
850 1 0.158196 0.438587 0.13817
851 2 0.169097 0.416006 0.158982
852 2 0.185258 0.443923 0.120616
756 2 0.120308 0.489119 0.140532
763 1 0.0617529 0.493078 0.0159076
704 2 0.146161 0.265126 0.00824865
915 2 0.234125 0.425225 0.0176705
167 2 0.267292 0.262622 0.173049
307 1 0.31463 0.306761 0.207851
308 2 0.295711 0.304024 0.235028
309 2 0.343503 0.310346 0.2231
580 1 0.329252 0.413376 0.0605601
581 2 0.357799 0.42992 0.060483
582 2 0.308118 0.437883 0.0650344
697 1 0.412717 0.470926 0.0597036
698 2 0.43845 0.476588 0.0793392
699 2 0.423001 0.486836 0.0333154
733 1 0.306358 0.393402 0.160546
734 2 0.316673 0.387451 0.130071
735 2 0.308726 0.363396 0.173965
853 1 0.259623 0.479516 0.157989
855 2 0.277178 0.45243 0.16518
633 2 0.478753 0.272868 0.00413531
914 2 0.268463 0.391837 0.00379734
252 2 0.654573 0.32589 0.228555
400 1 0.589011 0.416053 0.239757
401 2 0.59996 0.384825 0.243786
402 2 0.598358 0.41986 0.20818
445 1 0.594001 0.409427 0.0516569
446 2 0.572768 0.432619 0.0426764
447 2 0.576401 0.393062 0.073708
634 1 0.712851 0.329153 0.200523
635 2 0.720495 0.34875 0.175699
636 2 0.731535 0.342072 0.224552
904 1 0.719905 0.447222 0.175908
906 2 0.721048 0.45346 0.208022
1003 1 0.627298 0.432504 0.149548
1004 2 0.658978 0.438113 0.157385
1005 2 0.629891 0.430206 0.117145
86 2 0.587289 0.481187 0.245458
250 1 0.627485 0.327586 0.247422
368 2 0.626871 0.379251 0.0027314
161 2 0.944526 0.250784 0.207348
160 1 0.950869 0.26415 0.178424
253 1 0.92314 0.368915 0.0524068
254 2 0.914958 0.392172 0.0736911
255 2 0.896036 0.367087 0.0342742
370 1 0.861392 0.38461 0.213541
371 2 0.89248 0.386839 0.223157
372 2 0.861727 0.355304 0.199122
454 1 0.890288 0.285695 0.107801
455 2 0.910583 0.277529 0.133026
456 2 0.910862 0.303977 0.0901031
544 1 0.817182 0.465892 0.178936
545 2 0.820923 0.482023 0.207352
546 2 0.832123 0.437693 0.186707
905 2 0.750778 0.455058 0.167115
148 1 0.133148 0.55093 0.0464087
149 2 0.166123 0.551421 0.0447753
150 2 0.128892 0.546922 0.0788512
173 2 0.134546 0.749508 0.234974
321 2 0.222765 0.637862 0.215756
334 1 0.078007 0.649845 0.158304
335 2 0.0526259 0.631001 0.148169
336 2 0.0677532 0.678564 0.146991
535 1 0.000822716 0.596795 0.132559
536 2 0.0102439 0.565848 0.129396
574 1 0.226842 0.653566 0.0392777
576 2 0.201964 0.674511 0.0377957
754 1 0.0988513 0.514331 0.137567
755 2 0.103965 0.52935 0.166471
758 2 0.0203184 0.600198 0.00302748
764 2 0.0851687 0.512852 0.0285702
886 1 0.117936 0.571972 0.216769
887 2 0.10189 0.598265 0.205522
888 2 0.148478 0.583438 0.216067
928 1 0.17262 0.66022 0.181428
929 2 0.175206 0.69291 0.178848
930 2 0.141872 0.656304 0.169903
232 1 0.229657 0.558419 0.0323798
233 2 0.229279 0.590888 0.0399846
234 2 0.244719 0.560502 0.0035337
319 1 0.249301 0.634304 0.235443
854 2 0.272454 0.500958 0.179697
320 2 0.262066 0.664068 0.231424
322 1 0.295048 0.547294 0.218752
323 2 0.322261 0.552843 0.235614
324 2 0.278837 0.575524 0.223585
575 2 0.251661 0.67406 0.0315664
727 1 0.288746 0.721486 0.00491345
784 1 0.418664 0.698414 0.2181
785 2 0.421626 0.691782 0.185595
786 2 0.389904 0.713588 0.218549
895 1 0.438675 0.68245 0.124338
896 2 0.471026 0.682632 0.119481
897 2 0.428014 0.670249 0.096118
684 2 0.47374 0.736281 0.208117
728 2 0.320168 0.732085 0.00323629
602 2 0.517166 0.503669 0.120323
601 1 0.505538 0.505531 0.0899275
682 1 0.503899 0.747574 0.201533
202 1 0.566017 0.581764 0.183988
203 2 0.573803 0.555714 0.202917
204 2 0.55945 0.602946 0.208277
212 2 0.566449 0.581386 0.020552
358 1 0.652585 0.684307 0.227614
359 2 0.656769 0.657224 0.20893
360 2 0.675959 0.702596 0.214234
421 1 0.719106 0.560425 0.239389
422 2 0.742098 0.575688 0.221194
423 2 0.693625 0.574257 0.224496
424 1 0.544494 0.693439 0.133649
425 2 0.567915 0.684111 0.154235
426 2 0.530353 0.716546 0.153055
603 2 0.519247 0.533998 0.0807898
769 1 0.556167 0.592555 0.0869799
770 2 0.555529 0.625204 0.0836644
771 2 0.55919 0.590506 0.119934
778 1 0.569661 0.690587 0.0385125
779 2 0.562695 0.697285 0.0700335
780 2 0.560122 0.719367 0.0254035
823 1 0.672912 0.612873 0.165311
824 2 0.702295 0.608727 0.15141
825 2 0.653754 0.594819 0.145887
430 1 0.915808 0.744034 0.193995
433 1 0.908349 0.566722 0.152742
434 2 0.895265 0.57617 0.181396
435 2 0.8858 0.54581 0.142263
537 2 0.96848 0.592108 0.13756
826 1 0.790783 0.692675 0.131183
827 2 0.806923 0.699408 0.103796
828 2 0.788283 0.723148 0.143692
829 1 0.780176 0.60878 0.178408
830 2 0.81107 0.605161 0.188085
831 2 0.782662 0.63756 0.161916
431 2 0.93784 0.74772 0.217581
670 1 0.869257 0.596415 0.240353
181 1 0.0680291 0.889937 0.126277
182 2 0.0878996 0.898188 0.150884
183 2 0.0490027 0.91631 0.124181
226 1 0.245923 0.810031 0.00802366
781 1 0.137909 0.923732 0.213047
783 2 0.129663 0.953447 0.223113
910 1 0.184671 0.76376 0.188837
911 2 0.213711 0.768604 0.204293
912 2 0.18395 0.792899 0.173162
991 1 0.197612 0.861648 0.161647
992 2 0.222951 0.881272 0.155521
993 2 0.176232 0.88323 0.17393
1048 1 0.0718525 0.809239 0.0717578
1049 2 0.104105 0.806146 0.070254
1050 2 0.0694249 0.836851 0.0897231
782 2 0.153907 0.912818 0.239673
228 2 0.219853 0.829257 0.00582465
552 2 0.490922 0.993327 0.0155907
121 1 0.330923 0.985498 0.0901814
122 2 0.343972 0.975125 0.0620624
193 1 0.313123 0.879407 0.0197817
194 2 0.32825 0.906653 0.00909515
195 2 0.335353 0.869318 0.0413005
283 1 0.265446 0.787837 0.236916
285 2 0.272032 0.81991 0.233179
520 1 0.449924 0.806125 0.0529336
521 2 0.442704 0.791606 0.0812247
522 2 0.457078 0.836599 0.0639748
729 2 0.273857 0.751114 0.00624168
946 1 0.282289 0.88711 0.243182
948 2 0.283076 0.905501 0.215629
982 1 0.478781 0.892263 0.0902701
983 2 0.492341 0.917209 0.0739501
984 2 0.480263 0.903378 0.12089
994 1 0.274944 0.941536 0.16112
995 2 0.295254 0.947297 0.13586
996 2 0.263775 0.971921 0.164966
227 2 0.269562 0.833141 0.0105294
385 1 0.379441 0.952023 0.00143176
387 2 0.403506 0.973645 0.00796654
611 2 0.40247 0.774481 0.00366634
683 2 0.513848 0.753067 0.232589
4 1 0.540261 0.781308 0.0168612
5 2 0.509912 0.789349 0.0269776
6 2 0.548239 0.808039 0.000113574
49 1 0.529181 0.916581 0.24792
271 1 0.726376 0.853447 0.121354
272 2 0.710401 0.835888 0.0992915
273 2 0.747043 0.831098 0.133576
526 1 0.547195 0.96404 0.0343031
527 2 0.571994 0.947168 0.0469125
528 2 0.563461 0.981586 0.011526
77 2 0.861548 0.993737 0.20223
78 2 0.82418 0.972434 0.227717
432 2 0.930835 0.757652 0.168611
375 2 0.763933 0.957767 0.119417
76 1 0.842819 0.967229 0.200914
142 1 0.946464 0.846082 0.0623309
143 2 0.976827 0.840611 0.0727833
144 2 0.933971 0.862584 0.0879901
373 1 0.782155 0.984294 0.124426
374 2 0.801221 0.973857 0.149171
382 1 0.916294 0.90186 0.140653
383 2 0.892411 0.912816 0.160103
384 2 0.933838 0.929549 0.137006
973 1 0.791152 0.786046 0.162437
974 2 0.781994 0.792501 0.193801
975 2 0.822015 0.796568 0.163905
1045 1 0.963699 0.98547 0.117284
1047 2 0.947701 0.987163 0.0890203
42 2 0.18393 0.228724 0.256443
133 1 0.189582 0.00335888 0.403106
134 2 0.165106 0.00799047 0.381899
135 2 0.184972 0.0311553 0.420096
265 1 0.180847 0.153473 0.487814
266 2 0.206573 0.1605 0.469118
327 2 0.245485 0.16145 0.275476
615 2 0.075541 0.154129 0.486371
637 1 0.139439 0.0841577 0.426946
638 2 0.150288 0.112144 0.44009
639 2 0.127526 0.0696996 0.454054
219 2 0.242208 0.000583616 0.362766
113 2 0.238983 0.247069 0.398345
325 1 0.271825 0.141646 0.276218
115 1 0.486419 0.248591 0.335653
117 2 0.495744 0.228029 0.312067
217 1 0.265194 0.000892889 0.339154
268 1 0.377696 0.117657 0.407311
269 2 0.392772 0.13848 0.386946
270 2 0.357394 0.103511 0.385437
355 1 0.382452 0.00339746 0.313724
356 2 0.411216 0.0112121 0.328142
357 2 0.366931 0.03203 0.31673
364 1 0.485946 0.157502 0.280662
365 2 0.477496 0.131193 0.26326
366 2 0.460055 0.159174 0.301179
589 1 0.407857 0.18257 0.337123
590 2 0.379623 0.194225 0.325501
591 2 0.423539 0.210629 0.344218
715 1 0.490543 0.21974 0.473817
760 1 0.46718 0.0261404 0.354858
761 2 0.47713 0.037417 0.383475
762 2 0.495768 0.0191114 0.340687
970 1 0.320585 0.0827494 0.336329
971 2 0.298413 0.058352 0.334661
972 2 0.305369 0.104661 0.316727
717 2 0.461392 0.232753 0.466439
885 2 0.369255 0.117607 0.470393
7 1 0.72728 0.0675974 0.322656
9 2 0.714507 0.0968813 0.313892
116 2 0.512139 0.245407 0.356232
163 1 0.651003 0.01151 0.287386
164 2 0.6741 0.0239065 0.307259
165 2 0.655743 0.0306636 0.261488
361 1 0.555177 0.236028 0.403861
362 2 0.581666 0.226588 0.420051
363 2 0.532298 0.230463 0.427701
577 1 0.557851 0.0172902 0.31961
578 2 0.567736 0.0422462 0.338578
579 2 0.586874 0.00939679 0.306811
616 1 0.593278 0.0851892 0.382204
617 2 0.605302 0.0572342 0.395548
618 2 0.608069 0.106814 0.401482
820 1 0.680873 0.153749 0.309705
821 2 0.649117 0.150061 0.301375
822 2 0.680996 0.186429 0.313544
961 1 0.584465 0.139463 0.297449
962 2 0.581459 0.121867 0.32509
963 2 0.552945 0.146994 0.291506
8 2 0.736135 0.0751716 0.353147
340 1 0.628559 0.00260475 0.416084
28 1 0.79517 0.174306 0.469409
29 2 0.779643 0.17172 0.497941
30 2 0.791913 0.206834 0.465867
67 1 0.824192 0.0821886 0.46186
68 2 0.812047 0.113032 0.460767
69 2 0.851179 0.0862339 0.444345
197 2 0.772743 0.0221946 0.289409
412 1 0.00884262 0.449302 0.268718
112 1 0.23224 0.268743 0.375037
114 2 0.201862 0.278356 0.385041
413 2 0.0380569 0.463343 0.274664
721 1 0.147378 0.296148 0.412657
722 2 0.120228 0.312821 0.405499
723 2 0.150094 0.303547 0.445123
35 2 0.444354 0.282264 0.372262
34 1 0.420171 0.295258 0.390319
36 2 0.404172 0.312253 0.367764
313 1 0.394817 0.334452 0.266762
314 2 0.425008 0.324679 0.259314
315 2 0.397667 0.366842 0.265223
448 1 0.410966 0.498797 0.35611
449 2 0.439399 0.485543 0.364598
766 1 0.271051 0.305637 0.294525
767 2 0.257854 0.286884 0.318698
768 2 0.275614 0.333024 0.311765
53 2 0.634494 0.262912 0.346012
1020 2 0.554369 0.416009 0.302283
52 1 0.659709 0.255143 0.32689
54 2 0.681124 0.278933 0.335368
154 1 0.717941 0.334317 0.347527
155 2 0.73845 0.350766 0.367456
156 2 0.730587 0.344519 0.318964
157 1 0.54189 0.402053 0.430685
158 2 0.542095 0.408421 0.398262
159 2 0.522239 0.376121 0.431807
214 1 0.739054 0.474362 0.273909
251 2 0.631216 0.299844 0.264351
952 1 0.651579 0.478233 0.325708
953 2 0.63762 0.448947 0.330023
954 2 0.679434 0.469187 0.310537
1018 1 0.543195 0.428985 0.330486
1019 2 0.535003 0.458705 0.319595
200 2 0.710044 0.362286 0.482692
502 1 0.56766 0.477922 0.485629
504 2 0.558758 0.452898 0.465922
103 1 0.78546 0.394364 0.386187
104 2 0.785153 0.421246 0.404364
105 2 0.814891 0.397463 0.371849
178 1 0.764413 0.378083 0.26826
179 2 0.796408 0.382196 0.262456
180 2 0.754943 0.409147 0.273681
215 2 0.771042 0.482542 0.278158
410 2 0.859832 0.496572 0.279101
523 1 0.924326 0.486165 0.293624
808 1 0.877889 0.419467 0.349672
809 2 0.90443 0.400978 0.352789
810 2 0.890634 0.444413 0.332411
524 2 0.951946 0.469666 0.28485
172 1 0.118769 0.746906 0.263708
1027 1 0.0922181 0.502844 0.287502
1028 2 0.101673 0.523819 0.264176
1029 2 0.115567 0.509133 0.309983
1 1 0.0670606 0.603438 0.494656
2 2 0.0782646 0.577587 0.478387
337 1 0.052087 0.739691 0.334736
338 2 0.0718706 0.743335 0.308488
646 1 0.0235274 0.650946 0.307438
647 2 0.0539589 0.647354 0.296424
648 2 0.0259749 0.682035 0.318511
787 1 0.165425 0.532572 0.346442
788 2 0.188828 0.517801 0.363284
789 2 0.180469 0.561209 0.339824
832 1 0.219753 0.61232 0.328777
834 2 0.223614 0.643191 0.338417
833 2 0.230414 0.614501 0.297711
298 1 0.0113688 0.670759 0.445495
299 2 0.0176981 0.65869 0.416003
300 2 0.0287077 0.649941 0.464334
450 2 0.417114 0.53079 0.360961
72 2 0.327322 0.603486 0.497413
205 1 0.472071 0.591137 0.451762
206 2 0.466504 0.618719 0.468711
207 2 0.455695 0.596869 0.423843
295 1 0.462711 0.641854 0.283646
297 2 0.447698 0.662011 0.262135
346 1 0.427334 0.59921 0.363017
347 2 0.444877 0.611229 0.337505
348 2 0.398122 0.610471 0.354301
296 2 0.49243 0.639729 0.270078
85 1 0.587748 0.513484 0.252009
87 2 0.607641 0.512936 0.278025
91 1 0.623336 0.743131 0.301352
92 2 0.63562 0.723351 0.277827
216 2 0.727588 0.503654 0.263847
352 1 0.564864 0.566075 0.445093
353 2 0.532543 0.57145 0.45036
354 2 0.567579 0.536171 0.459183
397 1 0.526908 0.738197 0.297248
398 2 0.527866 0.705432 0.298779
399 2 0.559243 0.744304 0.301849
586 1 0.694 0.543677 0.387992
587 2 0.679614 0.518249 0.372837
588 2 0.693122 0.566139 0.364485
730 1 0.585244 0.589452 0.349256
731 2 0.601755 0.56297 0.358744
732 2 0.569385 0.594834 0.377391
776 2 0.605284 0.632575 0.465696
811 1 0.563472 0.640022 0.266509
812 2 0.570874 0.620924 0.29266
813 2 0.592733 0.653885 0.261196
775 1 0.607019 0.640022 0.497364
409 1 0.830864 0.50667 0.26746
411 2 0.839163 0.53774 0.261786
188 2 0.999569 0.732456 0.462399
525 2 0.935849 0.516403 0.288728
530 2 0.896316 0.548305 0.488661
671 2 0.861202 0.626311 0.250941
672 2 0.898165 0.59273 0.256274
700 1 0.953161 0.584537 0.290014
701 2 0.964848 0.578298 0.319737
702 2 0.974075 0.609172 0.28293
174 2 0.137737 0.767147 0.281478
187 1 0.000316305 0.765511 0.464467
31 1 0.235877 0.829537 0.421883
33 2 0.226729 0.860667 0.428553
244 1 0.171168 0.807868 0.316984
245 2 0.202593 0.800506 0.323868
246 2 0.175897 0.838153 0.30515
301 1 0.210433 0.918799 0.448728
302 2 0.216359 0.931775 0.477883
303 2 0.201026 0.945728 0.432045
339 2 0.0660286 0.761567 0.354927
496 1 0.197715 0.898069 0.288033
497 2 0.22493 0.891908 0.27007
498 2 0.211334 0.915882 0.311574
1000 1 0.104197 0.805947 0.38745
1001 2 0.120942 0.824582 0.408131
1002 2 0.125806 0.805481 0.362278
32 2 0.244615 0.81982 0.451662
189 2 0.022187 0.770853 0.440563
691 1 0.368744 0.914792 0.279671
692 2 0.395903 0.919485 0.262282
947 2 0.312351 0.894173 0.255314
218 2 0.287462 0.980307 0.351041
284 2 0.269587 0.78595 0.269714
415 1 0.267012 0.798417 0.335032
416 2 0.299282 0.806561 0.335378
417 2 0.259386 0.807145 0.366111
541 1 0.358287 0.82873 0.329966
542 2 0.388681 0.815922 0.328994
543 2 0.363821 0.857311 0.314686
562 1 0.48123 0.858833 0.424763
563 2 0.493833 0.861485 0.45467
564 2 0.460661 0.83386 0.427944
693 2 0.369173 0.943179 0.296567
718 1 0.453341 0.800478 0.322802
719 2 0.474276 0.776307 0.314977
720 2 0.474385 0.825668 0.323087
50 2 0.5231 0.947611 0.25566
51 2 0.518713 0.901468 0.275301
903 2 0.593596 0.890269 0.269613
466 1 0.515925 0.878841 0.337631
468 2 0.50009 0.87501 0.366523
93 2 0.648416 0.763368 0.306137
341 2 0.650767 0.989265 0.436372
342 2 0.616185 0.974663 0.403568
467 2 0.544981 0.887845 0.349805
556 1 0.612484 0.909241 0.383079
557 2 0.639396 0.895389 0.395104
558 2 0.617017 0.903859 0.350743
898 1 0.693738 0.954195 0.471767
899 2 0.709223 0.926724 0.479766
900 2 0.711465 0.976311 0.487981
901 1 0.620588 0.896142 0.28743
902 2 0.630342 0.924048 0.273567
676 1 0.769368 0.813937 0.252372
677 2 0.785174 0.813746 0.281599
678 2 0.753787 0.842382 0.255161
196 1 0.791904 0.996703 0.281347
97 1 0.810298 0.829076 0.339219
98 2 0.826042 0.817523 0.36534
99 2 0.825142 0.85871 0.336651
198 2 0.785795 0.976791 0.306357
475 1 0.940315 0.860089 0.361963
476 2 0.966123 0.841913 0.354568
477 2 0.932305 0.847452 0.391543
868 1 0.917505 0.817288 0.446278
869 2 0.94152 0.796803 0.456049
870 2 0.901705 0.821717 0.474547
871 1 0.86307 0.910381 0.334455
872 2 0.891315 0.894868 0.342485
873 2 0.874949 0.938822 0.324129
267 2 0.193467 0.161561 0.51747
427 1 0.121145 0.04812 0.515409
428 2 0.140929 0.040961 0.54073
429 2 0.104973 0.0738447 0.527446
613 1 0.0875108 0.147102 0.515761
614 2 0.119592 0.152412 0.510025
109 1 0.193713 0.205434 0.690234
110 2 0.211193 0.223693 0.711289
145 1 0.180794 0.0305913 0.593903
146 2 0.213142 0.0262988 0.592358
147 2 0.180431 0.0577249 0.613176
406 1 0.197757 0.117454 0.637681
407 2 0.205453 0.13559 0.611017
408 2 0.196531 0.141992 0.659717
508 1 0.0209149 0.184555 0.575982
509 2 0.045182 0.173978 0.556181
643 1 0.0525218 0.178656 0.745894
644 2 0.0838057 0.170632 0.742732
645 2 0.0509726 0.203785 0.724364
652 1 0.227644 0.177914 0.570286
654 2 0.233567 0.203103 0.590382
510 2 0.010951 0.156064 0.587956
111 2 0.167868 0.224766 0.685666
696 2 0.028687 0.249296 0.581132
653 2 0.257234 0.177225 0.555152
236 2 0.27741 0.0317141 0.726926
286 1 0.31574 0.191806 0.536929
287 2 0.334605 0.166811 0.525345
288 2 0.329689 0.195907 0.566601
472 1 0.478036 0.135144 0.607903
474 2 0.469442 0.140899 0.638762
716 2 0.483297 0.20257 0.500702
883 1 0.367917 0.116826 0.503617
884 2 0.394521 0.0991345 0.509656
988 1 0.32865 0.215532 0.637428
989 2 0.346935 0.240673 0.648131
990 2 0.324517 0.198617 0.66503
237 2 0.258259 0.0754604 0.742742
473 2 0.505109 0.117616 0.611977
538 1 0.637326 0.200853 0.679548
539 2 0.610773 0.219519 0.679584
540 2 0.651949 0.212269 0.707104
649 1 0.648886 0.0384238 0.629941
650 2 0.675347 0.0272251 0.645091
651 2 0.653944 0.0707933 0.633591
835 1 0.686191 0.129181 0.63463
836 2 0.671005 0.154684 0.649474
837 2 0.716962 0.132898 0.646237
964 1 0.70448 0.0827011 0.549968
965 2 0.679693 0.0629969 0.557718
966 2 0.700243 0.105353 0.573578
64 1 0.784597 0.12193 0.650898
65 2 0.796798 0.105722 0.62496
66 2 0.811846 0.134944 0.663507
190 1 0.867887 0.176845 0.687649
191 2 0.895145 0.191457 0.676376
192 2 0.847145 0.201828 0.681746
263 2 0.947509 0.0307061 0.692933
264 2 0.907685 0.0448883 0.719511
349 1 0.802305 0.076053 0.560797
350 2 0.813431 0.0723931 0.53006
351 2 0.769889 0.0760397 0.554762
736 1 0.895669 0.100749 0.749309
790 1 0.939197 0.241819 0.648951
792 2 0.968602 0.231434 0.639508
262 1 0.920791 0.017457 0.706117
738 2 0.883135 0.126344 0.732368
10 1 0.0583827 0.253165 0.683727
12 2 0.0571344 0.25967 0.65127
11 2 0.0427211 0.279653 0.694545
688 1 0.228075 0.463557 0.543926
690 2 0.233269 0.455416 0.512914
739 1 0.157879 0.318044 0.505706
740 2 0.188261 0.308303 0.514489
741 2 0.145267 0.325446 0.534859
817 1 0.168355 0.478703 0.627492
818 2 0.200414 0.476595 0.622019
819 2 0.158424 0.473299 0.596925
694 1 0.0352653 0.279187 0.593692
695 2 0.00818209 0.295663 0.586099
798 2 0.227813 0.377526 0.720925
389 2 0.270533 0.262764 0.526646
184 1 0.435238 0.427987 0.65561
185 2 0.462894 0.441207 0.666314
186 2 0.419912 0.45444 0.6437
388 1 0.250712 0.288803 0.528589
390 2 0.272673 0.312908 0.52883
559 1 0.393517 0.302187 0.664225
560 2 0.396627 0.333464 0.655322
561 2 0.421556 0.297772 0.680021
689 2 0.256612 0.478944 0.550595
199 1 0.703681 0.336756 0.501838
201 2 0.671767 0.340231 0.507023
503 2 0.575525 0.461531 0.512458
725 2 0.744212 0.285479 0.502659
724 1 0.766649 0.261898 0.508253
726 2 0.775783 0.270103 0.538335
106 1 0.922196 0.424592 0.614434
107 2 0.935805 0.424561 0.584888
108 2 0.924479 0.456814 0.620669
241 1 0.841118 0.26736 0.651527
242 2 0.872505 0.262982 0.643325
243 2 0.837942 0.29935 0.644062
280 1 0.957682 0.337348 0.658848
281 2 0.960951 0.347028 0.69037
282 2 0.944809 0.364986 0.646478
791 2 0.945728 0.273932 0.653647
805 1 0.843962 0.363232 0.62958
806 2 0.819936 0.384761 0.63337
807 2 0.869502 0.38328 0.624449
3 2 0.0936387 0.609316 0.51355
100 1 0.174768 0.659559 0.630895
101 2 0.192276 0.672079 0.655412
102 2 0.145584 0.672532 0.639178
493 1 0.151125 0.604526 0.547023
494 2 0.179298 0.588093 0.547511
495 2 0.155445 0.62352 0.573555
606 2 0.232314 0.610069 0.609884
679 1 0.0169269 0.748743 0.732116
1009 1 0.107313 0.534338 0.698223
1010 2 0.0904293 0.530153 0.670767
1011 2 0.134778 0.518705 0.689686
380 2 0.0132908 0.601602 0.538271
985 1 0.103129 0.720219 0.672326
987 2 0.0760261 0.71907 0.690748
444 2 0.0782252 0.578729 0.741
681 2 0.0111393 0.720181 0.747748
658 1 0.309311 0.513162 0.564131
659 2 0.336724 0.514353 0.581995
814 1 0.284355 0.728645 0.602555
815 2 0.255008 0.730563 0.588574
70 1 0.350613 0.611661 0.518658
71 2 0.374059 0.590374 0.51066
208 1 0.384954 0.608973 0.689808
209 2 0.36807 0.623684 0.714126
210 2 0.371167 0.624341 0.664083
460 1 0.337491 0.64707 0.609665
461 2 0.324417 0.677191 0.605843
462 2 0.346632 0.640711 0.5785
469 1 0.273398 0.722309 0.702438
470 2 0.28181 0.721649 0.670737
471 2 0.294446 0.700766 0.715396
565 1 0.384584 0.518476 0.641663
566 2 0.365362 0.513088 0.667364
567 2 0.394829 0.548732 0.649371
604 1 0.25525 0.593379 0.593636
605 2 0.281808 0.611461 0.600877
660 2 0.294048 0.540551 0.574198
669 2 0.444044 0.604598 0.735164
673 1 0.46911 0.666876 0.516896
674 2 0.454814 0.692734 0.530665
675 2 0.487585 0.655978 0.541424
668 2 0.481015 0.636258 0.748024
746 2 0.596393 0.695603 0.525712
124 1 0.557174 0.712503 0.629807
125 2 0.588291 0.708633 0.638216
126 2 0.561239 0.72114 0.598277
481 1 0.575435 0.620799 0.721913
482 2 0.568051 0.59687 0.743752
483 2 0.578073 0.601893 0.695603
745 1 0.586671 0.725655 0.536436
777 2 0.600236 0.610471 0.509128
1034 2 0.540476 0.676446 0.725642
1035 2 0.522914 0.709026 0.692345
311 2 0.74554 0.7448 0.55654
1006 1 0.730964 0.519923 0.540095
1007 2 0.721335 0.53744 0.514373
747 2 0.575716 0.737646 0.507997
1033 1 0.516776 0.699443 0.723191
529 1 0.884026 0.540119 0.517646
531 2 0.87451 0.569198 0.52941
1008 2 0.763104 0.517584 0.535525
16 1 0.938872 0.523737 0.598093
17 2 0.915931 0.52626 0.574484
18 2 0.958613 0.548 0.587032
19 1 0.90257 0.719217 0.734904
21 2 0.933885 0.716454 0.74357
58 1 0.926307 0.549022 0.691723
59 2 0.953891 0.566256 0.692773
60 2 0.926877 0.54005 0.659883
256 1 0.985334 0.69892 0.569668
257 2 0.986748 0.718143 0.596301
258 2 0.980885 0.721275 0.5465
379 1 0.987273 0.599956 0.558226
381 2 0.983699 0.632151 0.564699
619 1 0.845549 0.605485 0.612089
620 2 0.8569 0.612453 0.642328
621 2 0.818021 0.622469 0.612944
979 1 0.860424 0.636394 0.704925
980 2 0.869001 0.667488 0.71238
981 2 0.879814 0.620913 0.7259
1039 1 0.845171 0.529365 0.739865
1040 2 0.824078 0.548117 0.723527
1041 2 0.872898 0.536626 0.723066
239 2 0.00836362 0.820419 0.510621
238 1 0.0117788 0.83523 0.539741
240 2 0.041189 0.824253 0.548535
856 1 0.158096 0.933093 0.586186
857 2 0.135842 0.935439 0.562691
858 2 0.162998 0.964824 0.593511
986 2 0.10794 0.752319 0.671735
749 2 0.359059 0.997665 0.7361
816 2 0.296774 0.757826 0.592836
43 1 0.284637 0.99189 0.677374
44 2 0.294179 0.991815 0.645659
45 2 0.267537 0.964173 0.677759
94 1 0.369835 0.900792 0.602236
95 2 0.395189 0.880945 0.595702
96 2 0.38369 0.917129 0.62728
130 1 0.317028 0.814436 0.568337
131 2 0.320941 0.844862 0.579955
132 2 0.348088 0.803895 0.569559
259 1 0.439344 0.938491 0.66893
260 2 0.467115 0.95527 0.663855
261 2 0.435469 0.943371 0.700998
451 1 0.309043 0.977616 0.584215
452 2 0.32539 0.948965 0.585464
453 2 0.324909 0.992348 0.559909
490 1 0.402951 0.776292 0.620054
491 2 0.424821 0.801071 0.619336
492 2 0.40972 0.763314 0.64916
881 2 0.282215 0.812096 0.72728
1021 1 0.45945 0.856313 0.616194
1023 2 0.457673 0.882122 0.636635
1022 2 0.490692 0.858613 0.606835
849 2 0.587021 0.905173 0.506796
61 1 0.626541 0.885235 0.618929
62 2 0.653515 0.884723 0.637064
63 2 0.627706 0.854078 0.607465
310 1 0.73026 0.773424 0.558082
517 1 0.720858 0.842509 0.735795
519 2 0.728855 0.873729 0.740987
568 1 0.557512 0.949296 0.653444
569 2 0.578544 0.925986 0.643546
570 2 0.576879 0.975398 0.651043
571 1 0.638645 0.798009 0.581691
572 2 0.669341 0.788961 0.573439
573 2 0.621507 0.774694 0.566074
847 1 0.569601 0.88687 0.527234
848 2 0.587736 0.888632 0.554385
518 2 0.749395 0.828178 0.743397
20 2 0.898794 0.75189 0.735165
596 2 0.993503 0.758688 0.671241
968 2 0.992148 0.878016 0.619115
312 2 0.755219 0.79401 0.562182
22 1 0.922834 0.809714 0.570342
23 2 0.93319 0.790819 0.595089
24 2 0.951872 0.822352 0.561024
595 1 0.984588 0.769135 0.64124
597 2 0.98741 0.801623 0.646393
685 1 0.900996 0.820554 0.735454
687 2 0.905146 0.833219 0.705597
859 1 0.844129 0.867839 0.57604
860 2 0.869614 0.847206 0.572725
861 2 0.856181 0.889044 0.59753
942 2 0.890466 0.97753 0.74861
967 1 0.981555 0.866656 0.647721
969 2 0.955866 0.886658 0.65321
1024 1 0.903922 0.921569 0.671602
1025 2 0.906023 0.954321 0.669686
1026 2 0.888417 0.919885 0.700603
57 2 0.0169985 0.108748 0.923582
344 2 0.00406725 0.0179688 0.826528
555 2 0.238343 0.231728 0.78554
705 2 0.16385 0.232237 0.974909
802 1 0.132638 0.243833 0.911755
909 2 0.100891 0.00973945 0.998213
943 1 0.0136739 0.200149 0.988156
945 2 0.0135123 0.21903 0.961531
343 1 0.00427256 0.0454118 0.844743
500 2 0.0049371 0.144986 0.775472
584 2 0.0606258 0.248316 0.832385
750 2 0.338849 0.0270124 0.770762
748 1 0.365127 0.0076443 0.766439
151 1 0.341205 0.178348 0.850915
152 2 0.360356 0.151952 0.85007
153 2 0.363487 0.202072 0.850762
235 1 0.276944 0.0512249 0.753754
276 2 0.287133 0.168709 0.985025
751 1 0.27425 0.161797 0.921617
752 2 0.257836 0.136981 0.908477
753 2 0.295022 0.169093 0.897051
934 1 0.418498 0.0718874 0.926675
935 2 0.430486 0.0566287 0.952963
936 2 0.408981 0.0466154 0.908179
548 2 0.27088 0.00752456 0.832174
938 2 0.563332 0.112573 0.755726
247 1 0.552561 0.176752 0.836783
248 2 0.58319 0.186698 0.841392
249 2 0.536536 0.200459 0.853212
292 1 0.592215 0.0157573 0.961999
293 2 0.591114 0.0482471 0.958659
294 2 0.576572 0.00628883 0.93486
394 1 0.674416 0.238901 0.759646
395 2 0.705259 0.236143 0.769635
640 1 0.743911 0.102354 0.893536
642 2 0.720208 0.0797621 0.898685
925 1 0.690118 0.0243456 0.920843
927 2 0.665827 0.0121587 0.939152
937 1 0.531651 0.118424 0.759171
939 2 0.532169 0.136484 0.786794
593 2 0.968847 0.105912 0.987715
55 1 0.990412 0.0901394 0.927792
56 2 0.995122 0.0691891 0.902473
345 2 0.99689 0.067961 0.821933
176 2 0.803714 0.011374 0.902502
177 2 0.821532 0.00784265 0.85633
289 1 0.87226 0.0423691 0.828664
290 2 0.884421 0.0629516 0.851158
291 2 0.875291 0.0613389 0.801903
391 1 0.802502 0.174589 0.866665
392 2 0.826125 0.152617 0.863742
393 2 0.776973 0.154257 0.87282
487 1 0.823068 0.0681431 0.941127
488 2 0.826787 0.0742539 0.972903
489 2 0.849497 0.0838437 0.928752
499 1 0.980626 0.128693 0.790876
501 2 0.975801 0.149896 0.81595
641 2 0.767898 0.0884754 0.911155
737 2 0.922766 0.114949 0.762026
743 2 0.805786 0.236628 0.882258
874 1 0.969763 0.195586 0.860791
875 2 0.947312 0.212235 0.878566
876 2 0.989454 0.220956 0.852667
998 2 0.896039 0.240706 0.949382
999 2 0.874126 0.247465 0.905003
1030 1 0.899555 0.115125 0.898596
1031 2 0.929261 0.105083 0.909316
1032 2 0.906823 0.146729 0.894101
997 1 0.902004 0.23518 0.917907
765 2 0.0799863 0.479922 0.991577
553 1 0.239788 0.259115 0.76798
83 2 0.0397674 0.41705 0.970931
118 1 0.18265 0.31989 0.871999
119 2 0.212983 0.310065 0.863896
120 2 0.188828 0.35159 0.878128
136 1 0.17948 0.422245 0.86512
137 2 0.212391 0.423001 0.867268
138 2 0.176307 0.436758 0.836212
439 1 0.0901796 0.35448 0.864476
440 2 0.119216 0.338969 0.861542
441 2 0.101889 0.384783 0.868484
583 1 0.0350493 0.265824 0.842219
585 2 0.0474912 0.295955 0.842279
625 1 0.117199 0.454787 0.946744
626 2 0.143366 0.435282 0.948674
627 2 0.128058 0.476019 0.924507
796 1 0.237353 0.369999 0.751068
797 2 0.233544 0.33751 0.751136
801 2 0.0254161 0.37745 0.849683
803 2 0.151161 0.267812 0.898784
804 2 0.107525 0.261383 0.923725
931 1 0.0629405 0.304112 0.947942
932 2 0.0652808 0.321259 0.919982
933 2 0.0469408 0.326811 0.965488
913 1 0.239561 0.403199 0.993793
82 1 0.0182651 0.392802 0.966236
631 1 0.493346 0.251146 0.984844
554 2 0.255756 0.278012 0.789934
484 1 0.480966 0.428324 0.913528
486 2 0.456528 0.445822 0.925707
514 1 0.272033 0.41062 0.833844
515 2 0.30504 0.411318 0.833145
516 2 0.265447 0.403896 0.802182
892 1 0.2795 0.312652 0.840817
893 2 0.277818 0.345654 0.841519
894 2 0.3104 0.309133 0.850564
916 1 0.445616 0.346699 0.873695