ITEM: TIMESTEP
0
ITEM: NUMBER OF ATOMS
700
ITEM: BOX BOUNDS ff ff ff
-4.0000000000000000e+01 4.0000000000000000e+01
-4.0000000000000000e+01 4.0000000000000000e+01
-4.0000000000000000e+01 4.0000000000000000e+01
ITEM: ATOMS id type xs ys zs
81 1 0.435471 0.494192 0.191827
82 1 0.439341 0.477234 0.195176
91 1 0.436251 0.488431 0.161679
92 1 0.441626 0.471889 0.165029
93 1 0.444381 0.466769 0.181778
94 1 0.455226 0.45317 0.185127
105 1 0.447584 0.461917 0.15163
106 1 0.459604 0.449345 0.15498
107 1 0.464307 0.445928 0.171728
108 1 0.479979 0.438381 0.175078
109 1 0.485583 0.436835 0.191827
119 1 0.491303 0.435797 0.161679
110 1 0.502907 0.435275 0.195176
120 1 0.508697 0.435797 0.165029
121 1 0.514417 0.436835 0.181778
122 1 0.530702 0.442946 0.185127
129 1 0.520021 0.438381 0.15163
130 1 0.535693 0.445928 0.15498
131 1 0.540396 0.449345 0.171728
132 1 0.552416 0.461917 0.175078
133 1 0.555619 0.466769 0.191827
134 1 0.562455 0.482764 0.195176
137 1 0.558374 0.471889 0.161679
138 1 0.563749 0.488431 0.165029
139 1 0.564529 0.494192 0.181778
51 1 0.497093 0.564725 0.171728
52 1 0.479979 0.561619 0.175078
53 1 0.474536 0.559576 0.191827
54 1 0.459604 0.550655 0.195176
63 1 0.469298 0.557054 0.161679
64 1 0.455226 0.54683 0.165029
65 1 0.451209 0.542628 0.181778
66 1 0.441626 0.528111 0.185127
77 1 0.447584 0.538083 0.15163
78 1 0.439341 0.522766 0.15498
79 1 0.437545 0.517236 0.171728
80 1 0.43521 0.5 0.175078
21 1 0.56479 0.5 0.15163
22 1 0.562455 0.517236 0.15498
23 1 0.560659 0.522766 0.171728
24 1 0.552416 0.538083 0.175078
25 1 0.548791 0.542628 0.191827
26 1 0.535693 0.554072 0.195176
35 1 0.544774 0.54683 0.161679
36 1 0.530702 0.557054 0.165029
37 1 0.525464 0.559576 0.181778
38 1 0.508697 0.564203 0.185127
49 1 0.520021 0.561619 0.15163
50 1 0.502907 0.564725 0.15498
140 1 0.563749 0.511569 0.185127
48 1 0.435471 0.494192 0.285619
60 1 0.436251 0.488431 0.255471
61 1 0.437545 0.482764 0.27222
62 1 0.444381 0.466769 0.275569
70 1 0.437545 0.482764 0.225324
71 1 0.439341 0.477234 0.242072
72 1 0.447584 0.461917 0.245422
73 1 0.451209 0.457372 0.262171
74 1 0.464307 0.445928 0.26552
75 1 0.469298 0.442946 0.282269
76 1 0.485583 0.436835 0.285619
83 1 0.441626 0.471889 0.211925
84 1 0.451209 0.457372 0.215275
85 1 0.455226 0.45317 0.232023
86 1 0.469298 0.442946 0.235373
87 1 0.474536 0.440424 0.252121
88 1 0.491303 0.435797 0.255471
89 1 0.497093 0.435275 0.27222
95 1 0.459604 0.449345 0.201876
96 1 0.474536 0.440424 0.205226
97 1 0.479979 0.438381 0.221974
98 1 0.497093 0.435275 0.225324
245 1 0.447584 0.461917 0.292318
246 1 0.459604 0.449345 0.295668
90 1 0.514417 0.436835 0.275569
99 1 0.502907 0.435275 0.242072
100 1 0.520021 0.438381 0.245422
101 1 0.525464 0.440424 0.262171
102 1 0.540396 0.449345 0.26552
103 1 0.544774 0.45317 0.282269
104 1 0.555619 0.466769 0.285619
111 1 0.508697 0.435797 0.211925
112 1 0.525464 0.440424 0.215275
113 1 0.530702 0.442946 0.232023
114 1 0.544774 0.45317 0.235373
115 1 0.548791 0.457372 0.252121
116 1 0.558374 0.471889 0.255471
117 1 0.560659 0.477234 0.27222
118 1 0.564529 0.494192 0.275569
123 1 0.535693 0.445928 0.201876
124 1 0.548791 0.457372 0.205226
125 1 0.552416 0.461917 0.221974
126 1 0.560659 0.477234 0.225324
127 1 0.562455 0.482764 0.242072
135 1 0.563749 0.488431 0.211925
269 1 0.520021 0.438381 0.292318
270 1 0.535693 0.445928 0.295668
18 1 0.497093 0.564725 0.26552
19 1 0.491303 0.564203 0.282269
20 1 0.474536 0.559576 0.285619
30 1 0.491303 0.564203 0.235373
31 1 0.485583 0.563165 0.252121
32 1 0.469298 0.557054 0.255471
33 1 0.464307 0.554072 0.27222
34 1 0.451209 0.542628 0.275569
40 1 0.485583 0.563165 0.205226
41 1 0.479979 0.561619 0.221974
42 1 0.464307 0.554072 0.225324
43 1 0.459604 0.550655 0.242072
44 1 0.447584 0.538083 0.245422
45 1 0.444381 0.533231 0.262171
46 1 0.437545 0.517236 0.26552
47 1 0.436251 0.511569 0.282269
55 1 0.455226 0.54683 0.211925
56 1 0.444381 0.533231 0.215275
57 1 0.441626 0.528111 0.232023
58 1 0.436251 0.511569 0.235373
59 1 0.435471 0.505808 0.252121
67 1 0.439341 0.522766 0.201876
68 1 0.435471 0.505808 0.205226
69 1 0.43521 0.5 0.221974
217 1 0.447584 0.538083 0.292318
218 1 0.439341 0.522766 0.295668
1 1 0.564529 0.505808 0.262171
2 1 0.560659 0.522766 0.26552
3 1 0.558374 0.528111 0.282269
4 1 0.548791 0.542628 0.285619
5 1 0.563749 0.511569 0.232023
6 1 0.558374 0.528111 0.235373
7 1 0.555619 0.533231 0.252121
8 1 0.544774 0.54683 0.255471
9 1 0.540396 0.550655 0.27222
10 1 0.525464 0.559576 0.275569
11 1 0.562455 0.517236 0.201876
12 1 0.555619 0.533231 0.205226
13 1 0.552416 0.538083 0.221974
14 1 0.540396 0.550655 0.225324
15 1 0.535693 0.554072 0.242072
16 1 0.520021 0.561619 0.245422
17 1 0.514417 0.563165 0.262171
27 1 0.530702 0.557054 0.211925
28 1 0.514417 0.563165 0.215275
29 1 0.508697 0.564203 0.232023
39 1 0.502907 0.564725 0.201876
128 1 0.56479 0.5 0.245422
136 1 0.564529 0.505808 0.215275
161 1 0.56479 0.5 0.292318
162 1 0.562455 0.517236 0.295668
189 1 0.520021 0.561619 0.292318
190 1 0.502907 0.564725 0.295668
200 1 0.436251 0.488431 0.396159
210 1 0.437545 0.482764 0.366012
211 1 0.439341 0.477234 0.38276
212 1 0.447584 0.461917 0.38611
221 1 0.435471 0.494192 0.332514
222 1 0.439341 0.477234 0.335864
223 1 0.441626 0.471889 0.352613
224 1 0.451209 0.457372 0.355962
225 1 0.455226 0.45317 0.372711
226 1 0.469298 0.442946 0.376061
227 1 0.474536 0.440424 0.392809
228 1 0.491303 0.435797 0.396159
231 1 0.436251 0.488431 0.302367
232 1 0.441626 0.471889 0.305717
233 1 0.444381 0.466769 0.322465
234 1 0.455226 0.45317 0.325815
235 1 0.459604 0.449345 0.342564
236 1 0.474536 0.440424 0.345913
237 1 0.479979 0.438381 0.362662
238 1 0.497093 0.435275 0.366012
247 1 0.464307 0.445928 0.312416
248 1 0.479979 0.438381 0.315766
249 1 0.485583 0.436835 0.332514
259 1 0.491303 0.435797 0.302367
239 1 0.502907 0.435275 0.38276
240 1 0.520021 0.438381 0.38611
250 1 0.502907 0.435275 0.335864
251 1 0.508697 0.435797 0.352613
252 1 0.525464 0.440424 0.355962
253 1 0.530702 0.442946 0.372711
254 1 0.544774 0.45317 0.376061
255 1 0.548791 0.457372 0.392809
256 1 0.558374 0.471889 0.396159
260 1 0.508697 0.435797 0.305717
261 1 0.514417 0.436835 0.322465
262 1 0.530702 0.442946 0.325815
263 1 0.535693 0.445928 0.342564
264 1 0.548791 0.457372 0.345913
265 1 0.552416 0.461917 0.362662
266 1 0.560659 0.477234 0.366012
267 1 0.562455 0.482764 0.38276
271 1 0.540396 0.449345 0.312416
272 1 0.552416 0.461917 0.315766
273 1 0.555619 0.466769 0.332514
274 1 0.562455 0.482764 0.335864
275 1 0.563749 0.488431 0.352613
277 1 0.558374 0.471889 0.302367
278 1 0.563749 0.488431 0.305717
279 1 0.564529 0.494192 0.322465
170 1 0.491303 0.564203 0.376061
171 1 0.485583 0.563165 0.392809
172 1 0.469298 0.557054 0.396159
180 1 0.485583 0.563165 0.345913
181 1 0.479979 0.561619 0.362662
182 1 0.464307 0.554072 0.366012
183 1 0.459604 0.550655 0.38276
184 1 0.447584 0.538083 0.38611
191 1 0.497093 0.564725 0.312416
192 1 0.479979 0.561619 0.315766
193 1 0.474536 0.559576 0.332514
194 1 0.459604 0.550655 0.335864
195 1 0.455226 0.54683 0.352613
196 1 0.444381 0.533231 0.355962
197 1 0.441626 0.528111 0.372711
198 1 0.436251 0.511569 0.376061
199 1 0.435471 0.505808 0.392809
203 1 0.469298 0.557054 0.302367
204 1 0.455226 0.54683 0.305717
205 1 0.451209 0.542628 0.322465
206 1 0.441626 0.528111 0.325815
207 1 0.439341 0.522766 0.342564
208 1 0.435471 0.505808 0.345913
209 1 0.43521 0.5 0.362662
219 1 0.437545 0.517236 0.312416
220 1 0.43521 0.5 0.315766
145 1 0.563749 0.511569 0.372711
146 1 0.558374 0.528111 0.376061
147 1 0.555619 0.533231 0.392809
148 1 0.544774 0.54683 0.396159
151 1 0.562455 0.517236 0.342564
152 1 0.555619 0.533231 0.345913
153 1 0.552416 0.538083 0.362662
154 1 0.540396 0.550655 0.366012
155 1 0.535693 0.554072 0.38276
156 1 0.520021 0.561619 0.38611
163 1 0.560659 0.522766 0.312416
164 1 0.552416 0.538083 0.315766
165 1 0.548791 0.542628 0.332514
166 1 0.535693 0.554072 0.335864
167 1 0.530702 0.557054 0.352613
168 1 0.514417 0.563165 0.355962
169 1 0.508697 0.564203 0.372711
175 1 0.544774 0.54683 0.302367
176 1 0.530702 0.557054 0.305717
177 1 0.525464 0.559576 0.322465
178 1 0.508697 0.564203 0.325815
179 1 0.502907 0.564725 0.342564
268 1 0.56479 0.5 0.38611
276 1 0.564529 0.505808 0.355962
280 1 0.563749 0.511569 0.325815
188 1 0.435471 0.494192 0.426306
201 1 0.437545 0.482764 0.412908
202 1 0.444381 0.466769 0.416257
213 1 0.451209 0.457372 0.402858
214 1 0.464307 0.445928 0.406208
215 1 0.469298 0.442946 0.422957
216 1 0.485583 0.436835 0.426306
229 1 0.497093 0.435275 0.412908
361 1 0.435471 0.494192 0.473202
362 1 0.439341 0.477234 0.476552
363 1 0.441626 0.471889 0.493301
364 1 0.451209 0.457372 0.49665
371 1 0.436251 0.488431 0.443055
372 1 0.441626 0.471889 0.446405
373 1 0.444381 0.466769 0.463153
374 1 0.455226 0.45317 0.466503
375 1 0.459604 0.449345 0.483251
376 1 0.474536 0.440424 0.486601
385 1 0.447584 0.461917 0.433006
386 1 0.459604 0.449345 0.436355
387 1 0.464307 0.445928 0.453104
388 1 0.479979 0.438381 0.456454
389 1 0.485583 0.436835 0.473202
399 1 0.491303 0.435797 0.443055
230 1 0.514417 0.436835 0.416257
241 1 0.525464 0.440424 0.402858
242 1 0.540396 0.449345 0.406208
243 1 0.544774 0.45317 0.422957
244 1 0.555619 0.466769 0.426306
257 1 0.560659 0.477234 0.412908
258 1 0.564529 0.494192 0.416257
390 1 0.502907 0.435275 0.476552
391 1 0.508697 0.435797 0.493301
392 1 0.525464 0.440424 0.49665
400 1 0.508697 0.435797 0.446405
401 1 0.514417 0.436835 0.463153
402 1 0.530702 0.442946 0.466503
403 1 0.535693 0.445928 0.483251
404 1 0.548791 0.457372 0.486601
409 1 0.520021 0.438381 0.433006
410 1 0.535693 0.445928 0.436355
411 1 0.540396 0.449345 0.453104
412 1 0.552416 0.461917 0.456454
413 1 0.555619 0.466769 0.473202
414 1 0.562455 0.482764 0.476552
415 1 0.563749 0.488431 0.493301
417 1 0.558374 0.471889 0.443055
418 1 0.563749 0.488431 0.446405
419 1 0.564529 0.494192 0.463153
158 1 0.497093 0.564725 0.406208
159 1 0.491303 0.564203 0.422957
160 1 0.474536 0.559576 0.426306
173 1 0.464307 0.554072 0.412908
174 1 0.451209 0.542628 0.416257
185 1 0.444381 0.533231 0.402858
186 1 0.437545 0.517236 0.406208
187 1 0.436251 0.511569 0.422957
320 1 0.485583 0.563165 0.486601
331 1 0.497093 0.564725 0.453104
332 1 0.479979 0.561619 0.456454
333 1 0.474536 0.559576 0.473202
334 1 0.459604 0.550655 0.476552
335 1 0.455226 0.54683 0.493301
336 1 0.444381 0.533231 0.49665
343 1 0.469298 0.557054 0.443055
344 1 0.455226 0.54683 0.446405
345 1 0.451209 0.542628 0.463153
346 1 0.441626 0.528111 0.466503
347 1 0.439341 0.522766 0.483251
348 1 0.435471 0.505808 0.486601
357 1 0.447584 0.538083 0.433006
358 1 0.439341 0.522766 0.436355
359 1 0.437545 0.517236 0.453104
360 1 0.43521 0.5 0.456454
141 1 0.564529 0.505808 0.402858
142 1 0.560659 0.522766 0.406208
143 1 0.558374 0.528111 0.422957
144 1 0.548791 0.542628 0.426306
149 1 0.540396 0.550655 0.412908
150 1 0.525464 0.559576 0.416257
157 1 0.514417 0.563165 0.402858
291 1 0.562455 0.517236 0.483251
292 1 0.555619 0.533231 0.486601
301 1 0.56479 0.5 0.433006
302 1 0.562455 0.517236 0.436355
303 1 0.560659 0.522766 0.453104
304 1 0.552416 0.538083 0.456454
305 1 0.548791 0.542628 0.473202
306 1 0.535693 0.554072 0.476552
307 1 0.530702 0.557054 0.493301
308 1 0.514417 0.563165 0.49665
315 1 0.544774 0.54683 0.443055
316 1 0.530702 0.557054 0.446405
317 1 0.525464 0.559576 0.463153
318 1 0.508697 0.564203 0.466503
319 1 0.502907 0.564725 0.483251
329 1 0.520021 0.561619 0.433006
330 1 0.502907 0.564725 0.436355
416 1 0.564529 0.505808 0.49665
420 1 0.563749 0.511569 0.466503
328 1 0.435471 0.494192 0.566994
340 1 0.436251 0.488431 0.536847
341 1 0.437545 0.482764 0.553595
342 1 0.444381 0.466769 0.556945
350 1 0.437545 0.482764 0.506699
351 1 0.439341 0.477234 0.523448
352 1 0.447584 0.461917 0.526798
353 1 0.451209 0.457372 0.543546
354 1 0.464307 0.445928 0.546896
355 1 0.469298 0.442946 0.563644
356 1 0.485583 0.436835 0.566994
365 1 0.455226 0.45317 0.513399
366 1 0.469298 0.442946 0.516749
367 1 0.474536 0.440424 0.533497
368 1 0.491303 0.435797 0.536847
369 1 0.497093 0.435275 0.553595
377 1 0.479979 0.438381 0.50335
378 1 0.497093 0.435275 0.506699
511 1 0.436251 0.488431 0.583743
512 1 0.441626 0.471889 0.587092
525 1 0.447584 0.461917 0.573694
526 1 0.459604 0.449345 0.577043
527 1 0.464307 0.445928 0.593792
528 1 0.479979 0.438381 0.597142
539 1 0.491303 0.435797 0.583743
370 1 0.514417 0.436835 0.556945
379 1 0.502907 0.435275 0.523448
380 1 0.520021 0.438381 0.526798
381 1 0.525464 0.440424 0.543546
382 1 0.540396 0.449345 0.546896
383 1 0.544774 0.45317 0.563644
384 1 0.555619 0.466769 0.566994
393 1 0.530702 0.442946 0.513399
394 1 0.544774 0.45317 0.516749
395 1 0.548791 0.457372 0.533497
396 1 0.558374 0.471889 0.536847
397 1 0.560659 0.477234 0.553595
398 1 0.564529 0.494192 0.556945
405 1 0.552416 0.461917 0.50335
406 1 0.560659 0.477234 0.506699
407 1 0.562455 0.482764 0.523448
540 1 0.508697 0.435797 0.587092
549 1 0.520021 0.438381 0.573694
550 1 0.535693 0.445928 0.577043
551 1 0.540396 0.449345 0.593792
552 1 0.552416 0.461917 0.597142
557 1 0.558374 0.471889 0.583743
558 1 0.563749 0.488431 0.587092
298 1 0.497093 0.564725 0.546896
299 1 0.491303 0.564203 0.563644
300 1 0.474536 0.559576 0.566994
310 1 0.491303 0.564203 0.516749
311 1 0.485583 0.563165 0.533497
312 1 0.469298 0.557054 0.536847
313 1 0.464307 0.554072 0.553595
314 1 0.451209 0.542628 0.556945
321 1 0.479979 0.561619 0.50335
322 1 0.464307 0.554072 0.506699
323 1 0.459604 0.550655 0.523448
324 1 0.447584 0.538083 0.526798
325 1 0.444381 0.533231 0.543546
326 1 0.437545 0.517236 0.546896
327 1 0.436251 0.511569 0.563644
337 1 0.441626 0.528111 0.513399
338 1 0.436251 0.511569 0.516749
339 1 0.435471 0.505808 0.533497
349 1 0.43521 0.5 0.50335
471 1 0.497093 0.564725 0.593792
472 1 0.479979 0.561619 0.597142
483 1 0.469298 0.557054 0.583743
484 1 0.455226 0.54683 0.587092
497 1 0.447584 0.538083 0.573694
498 1 0.439341 0.522766 0.577043
499 1 0.437545 0.517236 0.593792
500 1 0.43521 0.5 0.597142
281 1 0.564529 0.505808 0.543546
282 1 0.560659 0.522766 0.546896
283 1 0.558374 0.528111 0.563644
284 1 0.548791 0.542628 0.566994
285 1 0.563749 0.511569 0.513399
286 1 0.558374 0.528111 0.516749
287 1 0.555619 0.533231 0.533497
288 1 0.544774 0.54683 0.536847
289 1 0.540396 0.550655 0.553595
290 1 0.525464 0.559576 0.556945
293 1 0.552416 0.538083 0.50335
294 1 0.540396 0.550655 0.506699
295 1 0.535693 0.554072 0.523448
296 1 0.520021 0.561619 0.526798
297 1 0.514417 0.563165 0.543546
309 1 0.508697 0.564203 0.513399
408 1 0.56479 0.5 0.526798
441 1 0.56479 0.5 0.573694
442 1 0.562455 0.517236 0.577043
443 1 0.560659 0.522766 0.593792
444 1 0.552416 0.538083 0.597142
455 1 0.544774 0.54683 0.583743
456 1 0.530702 0.557054 0.587092
469 1 0.520021 0.561619 0.573694
470 1 0.502907 0.564725 0.577043
480 1 0.436251 0.488431 0.677535
481 1 0.437545 0.482764 0.694283
482 1 0.444381 0.466769 0.697633
490 1 0.437545 0.482764 0.647387
491 1 0.439341 0.477234 0.664136
492 1 0.447584 0.461917 0.667486
493 1 0.451209 0.457372 0.684234
494 1 0.464307 0.445928 0.687584
501 1 0.435471 0.494192 0.61389
502 1 0.439341 0.477234 0.61724
503 1 0.441626 0.471889 0.633988
504 1 0.451209 0.457372 0.637338
505 1 0.455226 0.45317 0.654087
506 1 0.469298 0.442946 0.657436
507 1 0.474536 0.440424 0.674185
508 1 0.491303 0.435797 0.677535
509 1 0.497093 0.435275 0.694283
513 1 0.444381 0.466769 0.603841
514 1 0.455226 0.45317 0.607191
515 1 0.459604 0.449345 0.623939
516 1 0.474536 0.440424 0.627289
517 1 0.479979 0.438381 0.644038
518 1 0.497093 0.435275 0.647387
529 1 0.485583 0.436835 0.61389
510 1 0.514417 0.436835 0.697633
519 1 0.502907 0.435275 0.664136
520 1 0.520021 0.438381 0.667486
521 1 0.525464 0.440424 0.684234
522 1 0.540396 0.449345 0.687584
530 1 0.502907 0.435275 0.61724
531 1 0.508697 0.435797 0.633988
532 1 0.525464 0.440424 0.637338
533 1 0.530702 0.442946 0.654087
534 1 0.544774 0.45317 0.657436
535 1 0.548791 0.457372 0.674185
536 1 0.558374 0.471889 0.677535
537 1 0.560659 0.477234 0.694283
538 1 0.564529 0.494192 0.697633
541 1 0.514417 0.436835 0.603841
542 1 0.530702 0.442946 0.607191
543 1 0.535693 0.445928 0.623939
544 1 0.548791 0.457372 0.627289
545 1 0.552416 0.461917 0.644038
546 1 0.560659 0.477234 0.647387
547 1 0.562455 0.482764 0.664136
553 1 0.555619 0.466769 0.61389
554 1 0.562455 0.482764 0.61724
555 1 0.563749 0.488431 0.633988
559 1 0.564529 0.494192 0.603841
438 1 0.497093 0.564725 0.687584
450 1 0.491303 0.564203 0.657436
451 1 0.485583 0.563165 0.674185
452 1 0.469298 0.557054 0.677535
453 1 0.464307 0.554072 0.694283
454 1 0.451209 0.542628 0.697633
460 1 0.485583 0.563165 0.627289
461 1 0.479979 0.561619 0.644038
462 1 0.464307 0.554072 0.647387
463 1 0.459604 0.550655 0.664136
464 1 0.447584 0.538083 0.667486
465 1 0.444381 0.533231 0.684234
466 1 0.437545 0.517236 0.687584
473 1 0.474536 0.559576 0.61389
474 1 0.459604 0.550655 0.61724
475 1 0.455226 0.54683 0.633988
476 1 0.444381 0.533231 0.637338
477 1 0.441626 0.528111 0.654087
478 1 0.436251 0.511569 0.657436
479 1 0.435471 0.505808 0.674185
485 1 0.451209 0.542628 0.603841
486 1 0.441626 0.528111 0.607191
487 1 0.439341 0.522766 0.623939
488 1 0.435471 0.505808 0.627289
489 1 0.43521 0.5 0.644038
421 1 0.564529 0.505808 0.684234
422 1 0.560659 0.522766 0.687584
425 1 0.563749 0.511569 0.654087
426 1 0.558374 0.528111 0.657436
427 1 0.555619 0.533231 0.674185
428 1 0.544774 0.54683 0.677535
429 1 0.540396 0.550655 0.694283
430 1 0.525464 0.559576 0.697633
431 1 0.562455 0.517236 0.623939
432 1 0.555619 0.533231 0.627289
433 1 0.552416 0.538083 0.644038
434 1 0.540396 0.550655 0.647387
435 1 0.535693 0.554072 0.664136
436 1 0.520021 0.561619 0.667486
437 1 0.514417 0.563165 0.684234
445 1 0.548791 0.542628 0.61389
446 1 0.535693 0.554072 0.61724
447 1 0.530702 0.557054 0.633988
448 1 0.514417 0.563165 0.637338
449 1 0.508697 0.564203 0.654087
457 1 0.525464 0.559576 0.603841
458 1 0.508697 0.564203 0.607191
459 1 0.502907 0.564725 0.623939
548 1 0.56479 0.5 0.667486
556 1 0.564529 0.505808 0.637338
560 1 0.563749 0.511569 0.607191
468 1 0.435471 0.494192 0.707682
495 1 0.469298 0.442946 0.704332
496 1 0.485583 0.436835 0.707682
630 1 0.437545 0.482764 0.788075
641 1 0.435471 0.494192 0.754578
642 1 0.439341 0.477234 0.757928
643 1 0.441626 0.471889 0.774676
644 1 0.451209 0.457372 0.778026
645 1 0.455226 0.45317 0.794775
646 1 0.469298 0.442946 0.798124
651 1 0.436251 0.488431 0.724431
652 1 0.441626 0.471889 0.72778
653 1 0.444381 0.466769 0.744529
654 1 0.455226 0.45317 0.747879
655 1 0.459604 0.449345 0.764627
656 1 0.474536 0.440424 0.767977
657 1 0.479979 0.438381 0.784725
658 1 0.497093 0.435275 0.788075
665 1 0.447584 0.461917 0.714381
666 1 0.459604 0.449345 0.717731
667 1 0.464307 0.445928 0.73448
668 1 0.479979 0.438381 0.737829
669 1 0.485583 0.436835 0.754578
679 1 0.491303 0.435797 0.724431
523 1 0.544774 0.45317 0.704332
524 1 0.555619 0.466769 0.707682
670 1 0.502907 0.435275 0.757928
671 1 0.508697 0.435797 0.774676
672 1 0.525464 0.440424 0.778026
673 1 0.530702 0.442946 0.794775
674 1 0.544774 0.45317 0.798124
680 1 0.508697 0.435797 0.72778
681 1 0.514417 0.436835 0.744529
682 1 0.530702 0.442946 0.747879
683 1 0.535693 0.445928 0.764627
684 1 0.548791 0.457372 0.767977
685 1 0.552416 0.461917 0.784725
686 1 0.560659 0.477234 0.788075
689 1 0.520021 0.438381 0.714381
690 1 0.535693 0.445928 0.717731
691 1 0.540396 0.449345 0.73448
692 1 0.552416 0.461917 0.737829
693 1 0.555619 0.466769 0.754578
694 1 0.562455 0.482764 0.757928
695 1 0.563749 0.488431 0.774676
697 1 0.558374 0.471889 0.724431
698 1 0.563749 0.488431 0.72778
699 1 0.564529 0.494192 0.744529
439 1 0.491303 0.564203 0.704332
440 1 0.474536 0.559576 0.707682
467 1 0.436251 0.511569 0.704332
590 1 0.491303 0.564203 0.798124
600 1 0.485583 0.563165 0.767977
601 1 0.479979 0.561619 0.784725
602 1 0.464307 0.554072 0.788075
611 1 0.497093 0.564725 0.73448
612 1 0.479979 0.561619 0.737829
613 1 0.474536 0.559576 0.754578
614 1 0.459604 0.550655 0.757928
615 1 0.455226 0.54683 0.774676
616 1 0.444381 0.533231 0.778026
617 1 0.441626 0.528111 0.794775
618 1 0.436251 0.511569 0.798124
623 1 0.469298 0.557054 0.724431
624 1 0.455226 0.54683 0.72778
625 1 0.451209 0.542628 0.744529
626 1 0.441626 0.528111 0.747879
627 1 0.439341 0.522766 0.764627
628 1 0.435471 0.505808 0.767977
629 1 0.43521 0.5 0.784725
637 1 0.447584 0.538083 0.714381
638 1 0.439341 0.522766 0.717731
639 1 0.437545 0.517236 0.73448
640 1 0.43521 0.5 0.737829
423 1 0.558374 0.528111 0.704332
424 1 0.548791 0.542628 0.707682
565 1 0.563749 0.511569 0.794775
566 1 0.558374 0.528111 0.798124
571 1 0.562455 0.517236 0.764627
572 1 0.555619 0.533231 0.767977
573 1 0.552416 0.538083 0.784725
574 1 0.540396 0.550655 0.788075
581 1 0.56479 0.5 0.714381
582 1 0.562455 0.517236 0.717731
583 1 0.560659 0.522766 0.73448
584 1 0.552416 0.538083 0.737829
585 1 0.548791 0.542628 0.754578
586 1 0.535693 0.554072 0.757928
587 1 0.530702 0.557054 0.774676
588 1 0.514417 0.563165 0.778026
589 1 0.508697 0.564203 0.794775
595 1 0.544774 0.54683 0.724431
596 1 0.530702 0.557054 0.72778
597 1 0.525464 0.559576 0.744529
598 1 0.508697 0.564203 0.747879
599 1 0.502907 0.564725 0.764627
609 1 0.520021 0.561619 0.714381
610 1 0.502907 0.564725 0.717731
696 1 0.564529 0.505808 0.778026
700 1 0.563749 0.511569 0.747879
608 1 0.435471 0.494192 0.84837
620 1 0.436251 0.488431 0.818222
621 1 0.437545 0.482764 0.834971
622 1 0.444381 0.466769 0.838321
631 1 0.439341 0.477234 0.804824
632 1 0.447584 0.461917 0.808173
633 1 0.451209 0.457372 0.824922
634 1 0.464307 0.445928 0.828272
635 1 0.469298 0.442946 0.84502
636 1 0.485583 0.436835 0.84837
647 1 0.474536 0.440424 0.814873
648 1 0.491303 0.435797 0.818222
649 1 0.497093 0.435275 0.834971
650 1 0.514417 0.436835 0.838321
659 1 0.502907 0.435275 0.804824
660 1 0.520021 0.438381 0.808173
661 1 0.525464 0.440424 0.824922
662 1 0.540396 0.449345 0.828272
663 1 0.544774 0.45317 0.84502
664 1 0.555619 0.466769 0.84837
675 1 0.548791 0.457372 0.814873
676 1 0.558374 0.471889 0.818222
677 1 0.560659 0.477234 0.834971
678 1 0.564529 0.494192 0.838321
687 1 0.562455 0.482764 0.804824
578 1 0.497093 0.564725 0.828272
579 1 0.491303 0.564203 0.84502
580 1 0.474536 0.559576 0.84837
591 1 0.485583 0.563165 0.814873
592 1 0.469298 0.557054 0.818222
593 1 0.464307 0.554072 0.834971
594 1 0.451209 0.542628 0.838321
603 1 0.459604 0.550655 0.804824
604 1 0.447584 0.538083 0.808173
605 1 0.444381 0.533231 0.824922
606 1 0.437545 0.517236 0.828272
607 1 0.436251 0.511569 0.84502
619 1 0.435471 0.505808 0.814873
561 1 0.564529 0.505808 0.824922
562 1 0.560659 0.522766 0.828272
563 1 0.558374 0.528111 0.84502
564 1 0.548791 0.542628 0.84837
567 1 0.555619 0.533231 0.814873
568 1 0.544774 0.54683 0.818222
569 1 0.540396 0.550655 0.834971
570 1 0.525464 0.559576 0.838321
575 1 0.535693 0.554072 0.804824
576 1 0.520021 0.561619 0.808173
577 1 0.514417 0.563165 0.824922
688 1 0.56479 0.5 0.808173
ITEM: TIMESTEP
1000
ITEM: NUMBER OF ATOMS
700
ITEM: BOX BOUNDS ff ff ff
-4.0000000000000000e+01 4.0000000000000000e+01
-4.0000000000000000e+01 4.0000000000000000e+01
-4.0000000000000000e+01 4.0000000000000000e+01
ITEM: ATOMS id type xs ys zs
81 1 0.433485 0.49427 0.1917
82 1 0.441501 0.478947 0.195089
91 1 0.438035 0.488112 0.162058
92 1 0.440597 0.470939 0.165311
93 1 0.444406 0.466955 0.181878
94 1 0.455291 0.45303 0.185553
105 1 0.447584 0.461917 0.15163
106 1 0.459604 0.449345 0.15498
107 1 0.463507 0.445287 0.171641
108 1 0.480112 0.439196 0.175166
109 1 0.486707 0.440337 0.191298
119 1 0.492227 0.438137 0.162197
110 1 0.503243 0.435056 0.195264
120 1 0.509202 0.434327 0.164852
121 1 0.514868 0.435127 0.181555
122 1 0.531166 0.441252 0.185293
129 1 0.520021 0.438381 0.15163
130 1 0.535693 0.445928 0.15498
131 1 0.540386 0.448622 0.172007
132 1 0.551669 0.461936 0.174681
133 1 0.55336 0.467357 0.191151
134 1 0.558094 0.483705 0.195129
137 1 0.555434 0.47402 0.161641
138 1 0.563305 0.489015 0.164726
139 1 0.564542 0.494186 0.181773
51 1 0.496631 0.565667 0.171541
52 1 0.479229 0.56272 0.175962
53 1 0.474094 0.560118 0.192536
54 1 0.459293 0.550184 0.196352
63 1 0.468491 0.556301 0.163637
64 1 0.452855 0.547529 0.166048
65 1 0.451994 0.540845 0.182272
66 1 0.440345 0.527757 0.185723
77 1 0.447584 0.538083 0.15163
78 1 0.439341 0.522766 0.15498
79 1 0.436285 0.517196 0.171841
80 1 0.433824 0.499668 0.174351
21 1 0.56479 0.5 0.15163
22 1 0.562455 0.517236 0.15498
23 1 0.561767 0.523543 0.171894
24 1 0.554008 0.538758 0.174795
25 1 0.549442 0.543002 0.191872
26 1 0.535218 0.552981 0.195309
35 1 0.544237 0.546803 0.162632
36 1 0.531329 0.558318 0.164919
37 1 0.525079 0.55731 0.181539
38 1 0.508791 0.563057 0.184506
49 1 0.520021 0.561619 0.15163
50 1 0.502907 0.564725 0.15498
140 1 0.564139 0.511882 0.185309
48 1 0.436432 0.494369 0.286019
60 1 0.435564 0.488353 0.256048
61 1 0.43807 0.482974 0.272796
62 1 0.445667 0.467113 0.276315
70 1 0.437461 0.482745 0.2258
71 1 0.44006 0.477471 0.242758
72 1 0.451069 0.46452 0.245847
73 1 0.452228 0.457935 0.262506
74 1 0.464742 0.445824 0.265364
75 1 0.470417 0.441742 0.28173
76 1 0.486821 0.439646 0.28562
83 1 0.442029 0.472967 0.211923
84 1 0.45261 0.458915 0.215849
85 1 0.456321 0.453525 0.232336
86 1 0.470154 0.443025 0.235273
87 1 0.475817 0.443135 0.252398
88 1 0.491471 0.436241 0.255736
89 1 0.497621 0.435995 0.272477
95 1 0.459884 0.449899 0.202522
96 1 0.475727 0.441913 0.204892
97 1 0.480916 0.44 0.221626
98 1 0.498139 0.439375 0.225151
245 1 0.448991 0.461131 0.292424
246 1 0.460403 0.447859 0.29493
90 1 0.514344 0.441167 0.275333
99 1 0.502779 0.435744 0.242207
100 1 0.520499 0.438846 0.245672
101 1 0.526159 0.440641 0.262669
102 1 0.541354 0.449309 0.26516
103 1 0.543058 0.454989 0.282573
104 1 0.556092 0.465916 0.285879
111 1 0.509026 0.435895 0.21208
112 1 0.526087 0.440341 0.215504
113 1 0.531449 0.442502 0.232337
114 1 0.544167 0.454092 0.235354
115 1 0.546918 0.459627 0.251639
116 1 0.559366 0.47188 0.255438
117 1 0.561576 0.476719 0.272795
118 1 0.56334 0.493975 0.275883
123 1 0.53562 0.445512 0.201725
124 1 0.547796 0.457823 0.204337
125 1 0.550838 0.462282 0.221443
126 1 0.557025 0.478006 0.225695
127 1 0.561998 0.482563 0.242105
135 1 0.562308 0.488293 0.2121
269 1 0.520401 0.438203 0.292108
270 1 0.535864 0.444965 0.295333
18 1 0.495757 0.564889 0.265529
19 1 0.490543 0.564384 0.282536
20 1 0.47386 0.558957 0.286063
30 1 0.490423 0.56117 0.236171
31 1 0.484296 0.562185 0.252315
32 1 0.468389 0.556615 0.256064
33 1 0.463481 0.553889 0.272428
34 1 0.450546 0.542273 0.275942
40 1 0.485194 0.562255 0.205889
41 1 0.479286 0.561083 0.22251
42 1 0.46397 0.553752 0.225982
43 1 0.458954 0.550733 0.242561
44 1 0.447282 0.53788 0.245772
45 1 0.443722 0.533361 0.262648
46 1 0.43707 0.517116 0.26543
47 1 0.437083 0.51141 0.282212
55 1 0.455178 0.546062 0.212928
56 1 0.446716 0.53125 0.215874
57 1 0.442351 0.527685 0.231969
58 1 0.439671 0.510574 0.23536
59 1 0.434765 0.505501 0.251635
67 1 0.438408 0.522281 0.202445
68 1 0.433533 0.505428 0.205545
69 1 0.434594 0.499693 0.222581
217 1 0.446925 0.53786 0.292298
218 1 0.439532 0.522664 0.295706
1 1 0.562501 0.505411 0.262088
2 1 0.556663 0.521488 0.266176
3 1 0.557933 0.52829 0.282806
4 1 0.54547 0.54032 0.285839
5 1 0.560003 0.510527 0.232127
6 1 0.555664 0.527383 0.235416
7 1 0.554647 0.532832 0.252615
8 1 0.544265 0.547021 0.255735
9 1 0.538829 0.549756 0.272482
10 1 0.522869 0.556127 0.276264
11 1 0.561806 0.517754 0.201967
12 1 0.554476 0.533759 0.205498
13 1 0.549359 0.53601 0.221951
14 1 0.540047 0.550742 0.225632
15 1 0.535188 0.55421 0.24268
16 1 0.519808 0.56183 0.24671
17 1 0.513429 0.562411 0.262802
27 1 0.53039 0.556411 0.212299
28 1 0.513426 0.559929 0.21546
29 1 0.508538 0.563768 0.23274
39 1 0.502794 0.563734 0.20175
128 1 0.563089 0.499579 0.244948
136 1 0.563783 0.50595 0.215269
161 1 0.561182 0.499706 0.292948
162 1 0.561471 0.517511 0.296161
189 1 0.518111 0.560085 0.292567
190 1 0.502119 0.56468 0.296104
200 1 0.441045 0.489497 0.396455
210 1 0.438921 0.482617 0.365878
211 1 0.440826 0.477871 0.382447
212 1 0.449365 0.462941 0.385528
221 1 0.436891 0.493466 0.332198
222 1 0.443709 0.477896 0.334614
223 1 0.443198 0.471767 0.351796
224 1 0.454139 0.457882 0.355097
225 1 0.454258 0.452524 0.372575
226 1 0.468535 0.442087 0.376209
227 1 0.473946 0.440675 0.393051
228 1 0.490707 0.436887 0.39615
231 1 0.440219 0.488328 0.301847
232 1 0.442688 0.47116 0.3056
233 1 0.445069 0.465426 0.322039
234 1 0.454579 0.450751 0.324794
235 1 0.460157 0.44797 0.341316
236 1 0.47421 0.438993 0.345862
237 1 0.47903 0.43707 0.362963
238 1 0.496512 0.436462 0.365715
247 1 0.463675 0.443199 0.311202
248 1 0.479409 0.435893 0.315055
249 1 0.484547 0.435419 0.332015
259 1 0.491179 0.435824 0.302136
239 1 0.502174 0.437572 0.382635
240 1 0.517702 0.443671 0.38642
250 1 0.501763 0.438957 0.335413
251 1 0.507271 0.438038 0.352606
252 1 0.524203 0.443605 0.355869
253 1 0.52929 0.445059 0.373116
254 1 0.542084 0.456166 0.376005
255 1 0.54814 0.457433 0.391997
256 1 0.557657 0.472305 0.396058
260 1 0.508739 0.435103 0.305452
261 1 0.513534 0.437244 0.322612
262 1 0.529367 0.444365 0.325669
263 1 0.532975 0.45067 0.342269
264 1 0.549118 0.457492 0.345863
265 1 0.552034 0.462212 0.362931
266 1 0.560813 0.477664 0.365945
267 1 0.562027 0.483649 0.382737
271 1 0.54078 0.448597 0.312413
272 1 0.550456 0.463005 0.315457
273 1 0.556192 0.46651 0.33233
274 1 0.562844 0.482696 0.336503
275 1 0.563894 0.488748 0.352707
277 1 0.559556 0.470746 0.302973
278 1 0.563088 0.487723 0.306327
279 1 0.562939 0.493743 0.322915
170 1 0.489963 0.564135 0.375389
171 1 0.483989 0.564196 0.391992
172 1 0.468586 0.557505 0.396009
180 1 0.484228 0.561629 0.344675
181 1 0.479322 0.561737 0.361825
182 1 0.463514 0.554933 0.365513
183 1 0.459025 0.551789 0.382509
184 1 0.446228 0.539335 0.38639
191 1 0.496324 0.563594 0.312578
192 1 0.480466 0.557591 0.315288
193 1 0.473175 0.558883 0.331585