LAMMPS data file via write_data, version 29 Oct 2020, timestep = 259000

576 atoms
2 atom types

1.681329882496657 18.904247829103532 xlo xhi
-3.530451344195436 24.11602905581896 ylo yhi
2.250452081598471 18.335125630000253 zlo zhi

Masses

1 28.0855
2 15.9994

Atoms # full

377 42 2 -0.55 4.463828710960065 0.44224136664363334 5.659412854014427 -1 0 -1
165 19 1 1.1 4.459982247044261 -1.1055361355330415 5.18224693633625 1 0 0
421 47 2 -0.55 4.951272687042863 -1.1112476459482412 3.6415220687914847 2 1 0
81 9 2 -0.55 5.3456942588551275 -1.9202153698953957 6.165738918775078 0 -1 -1
385 43 2 -0.55 2.9461743865732504 -1.6745222955195314 5.16805345565079 0 0 0
542 61 1 1.1 6.451449123819369 -3.112778693284302 6.0645861061978765 -1 1 1
410 46 2 -0.55 2.2187723319651957 1.290871299935663 4.959909015266895 0 0 0
208 24 1 1.1 3.5695290540378024 1.7350382486754752 5.704466407831145 1 0 0
261 29 2 -0.55 6.413584615554211 1.5511935107872175 3.931679222136509 0 1 -1
80 9 2 -0.55 2.557021895105369 -2.2958253503602943 7.598131791644886 0 0 0
203 23 2 -0.55 6.368183010592064 0.814445932683161 8.522808768581424 -1 -1 -1
407 46 1 1.1 3.2976677341172156 -2.2504579838340595 9.026027310002467 1 1 0
376 42 2 -0.55 4.4826453513010245 -1.088623055740273 8.977181557221854 0 1 0
388 44 1 1.1 5.844761719699769 -0.3676591867325909 9.483102581153533 2 0 -1
26 3 2 -0.55 6.983197641815613 -1.4406397793766001 9.768399969189367 2 0 -1
147 17 1 1.1 1.8009561695204395 -2.289600952830507 6.120259371552776 0 0 0
220 25 2 -0.55 2.2822044161835535 -1.829114292556787 10.190696173964298 2 1 -1
276 31 2 -0.55 3.134298023763577 -2.3713972549793736 18.312368767770078 0 0 -1
248 28 2 -0.55 7.897678652225389 -2.5045210336328667 6.4863165923404065 1 0 1
380 43 1 1.1 7.56195461339162 0.8646775940654274 3.08197140717267 2 0 0
360 40 2 -0.55 8.153801673591794 -0.5098350654500567 3.513161652159003 0 0 1
327 37 1 1.1 9.34611386718542 -2.1584072116043105 7.012545871626355 -2 -1 0
33 4 2 -0.55 10.171572203457883 -1.1317078844246176 6.056994876695495 -1 -1 1
534 60 1 1.1 11.250378591646216 -0.6058966678762774 4.99083260000452 0 0 1
51 6 2 -0.55 10.701098455725317 -1.0501916218561806 3.525501871918891 0 0 -1
44 5 2 -0.55 12.688276573290304 -1.3217038296504726 5.101151432499779 -2 0 0
280 32 1 1.1 9.304256868896868 -1.491340315405051 2.8965909097391815 0 0 0
358 40 2 -0.55 11.417895900111612 0.9672171148630717 4.93746711969014 -1 0 1
294 33 2 -0.55 8.94920036933647 -2.9547600490060955 3.263558956385574 0 0 2
341 38 2 -0.55 11.146325344202454 0.8958630158338137 7.929685625361916 0 0 0
321 36 2 -0.55 9.185124986382906 -1.4362895463265852 8.403224114670746 1 0 1
75 9 1 1.1 12.378412485164457 -0.015543187843590989 8.570946459684233 0 0 -1
1 1 1 1.1 8.528822228405433 -1.9902777161045728 9.805211097991386 1 0 0
71 8 2 -0.55 12.023969624843211 -1.3567261001049382 9.363147950942793 2 0 -2
229 26 2 -0.55 12.806905730141475 1.0913475339087269 9.762487920397286 0 1 0
509 57 2 -0.55 11.681296771479527 1.5939740145794064 2.455949053639418 -2 1 0
29 4 1 1.1 12.876393404155138 -2.439526000449777 10.270791356286075 0 1 -1
436 49 2 -0.55 8.805711498834992 1.9469390862823603 8.444611761201577 1 0 0
32 4 2 -0.55 10.188941625422425 -3.487999585674398 7.405507529453067 -1 -1 -1
221 25 2 -0.55 8.744453631296913 1.9862704363266657 3.0189641272598218 0 0 1
4 1 2 -0.55 1.7417516424766106 1.320095559666207 8.9819013194613 0 0 -1
184 21 2 -0.55 18.63938306140382 0.4923763648690178 2.513082868067841 -1 0 1
125 14 2 -0.55 14.040090954247873 -3.009256149917978 6.635370971809255 -1 1 -2
501 56 2 -0.55 13.439653779940246 -0.44656371979448073 7.430961516937124 2 0 1
119 14 1 1.1 13.81270238601274 -1.4242080903961982 6.226239776860984 0 1 0
558 62 2 -0.55 15.237312827989449 -0.9578455660227361 5.6358228315206915 1 1 -1
559 63 1 1.1 16.572573563841793 -0.1893863548207375 5.849654988244648 -1 1 0
458 51 2 -0.55 17.781922967846086 -1.2155984839900138 6.282168822929846 0 -1 0
140 16 2 -0.55 17.01031190966758 0.5433370591655393 4.462411819956479 -1 0 1
246 28 1 1.1 18.293762252718786 1.3094332181019572 3.810904389551901 0 0 0
494 55 2 -0.55 16.380289000603554 1.0128733996147714 6.850188005310484 -1 0 1
265 30 2 -0.55 14.869560072511273 -2.17541156573136 3.247449500840989 -1 0 -1
68 8 2 -0.55 14.385490570311166 -2.717409939703757 9.531064554197943 -1 1 0
452 51 1 1.1 15.923160232336658 -3.1852723848835667 9.2576012046002 -1 -1 0
178 20 2 -0.55 16.922648006969247 -1.9311138966983983 9.625231482236297 0 0 1
481 54 2 -0.55 13.639451793145216 0.009962213467142433 2.4362292827125813 -1 0 2
206 23 2 -0.55 3.2678836540692284 2.3716057494635336 7.11582328455242 2 0 0
10 2 1 1.1 5.211317561657772 2.648865952656158 3.572546224571927 0 0 -1
97 11 2 -0.55 4.190592836270696 2.855382277476725 4.765733484794421 0 0 -1
525 59 1 1.1 2.342952784030299 6.802409968230112 6.772226154283337 1 0 1
507 57 1 1.1 5.876157330146627 5.566846942874667 3.9471148989449905 1 0 0
422 47 2 -0.55 6.244014681117005 5.190936220787826 5.507501648394355 0 0 0
301 34 2 -0.55 5.774694696863767 4.147642490979143 3.180193574613396 -1 -1 1
139 16 2 -0.55 4.565312044092624 6.460138833655332 3.7487064442287856 0 0 1
433 49 1 1.1 3.4628944554659897 7.027760064868588 2.695516540518765 0 0 2
521 58 2 -0.55 6.824480121156266 2.902470487794279 6.948088791366103 0 1 -1
562 63 2 -0.55 2.043251591298731 6.3952506083626535 3.183997676611086 1 1 1
292 33 2 -0.55 3.1441602234559407 5.730640098259364 7.685873051688221 -1 0 1
49 6 2 -0.55 6.8273823802680225 3.313421631266526 9.463857798351697 0 1 0
193 22 2 -0.55 4.699220070876585 5.111482709270014 9.673240433695588 0 0 0
209 24 1 1.1 3.1824965635783515 5.2133964081164414 9.18295450280104 -1 1 -1
158 18 2 -0.55 2.3890659322689274 3.7937413676538814 9.017431576883936 1 0 -2
129 15 1 1.1 1.9336910200244906 2.6458686770920687 8.026532766767945 0 0 -1
403 45 2 -0.55 7.065681232556418 6.406607945226831 3.2712440073892166 -2 0 0
179 20 2 -0.55 7.406824709267909 6.332395981828508 9.289625980827122 0 1 0
361 41 1 1.1 7.181443827050631 2.2066449286065843 8.307919376653764 0 1 1
36 4 2 -0.55 5.521211778365238 7.397476323573805 7.959586381613325 2 0 0
20 3 1 1.1 7.397847168636978 4.184226028494112 6.133874334359367 0 0 0
533 60 1 1.1 10.362458404209745 2.3088133163055664 8.132792872333772 1 0 0
390 44 1 1.1 11.80433797205883 2.218164244954661 3.940070703768016 0 0 1
526 59 2 -0.55 8.262239507032348 3.7614670627743063 4.851054899076916 -1 1 -1
263 30 1 1.1 9.179045680695069 3.4511111400054197 3.530458104511898 1 1 0
409 46 2 -0.55 10.735207024930274 3.3725704109940864 3.9696476851379154 -2 0 1
288 32 2 -0.55 10.794857234881352 5.827704693623257 5.804009371919562 2 1 0
344 39 1 1.1 9.821993737812148 7.0569840271494115 6.159306227975044 0 -1 1
424 48 1 1.1 11.475132119013269 4.655948028341314 6.755506191731023 0 1 -1
126 14 2 -0.55 8.214827858166924 4.920487008911486 7.278644332727371 1 0 -1
274 31 2 -0.55 9.434480867606403 7.01960718082479 7.689447149947054 0 1 -1
188 21 2 -0.55 10.531772483043202 3.3488680471398595 6.972262190749352 0 1 -2
45 5 2 -0.55 11.194467774259612 2.972654921259391 9.407182110167012 -1 1 -1
169 19 2 -0.55 11.986386440361574 5.4682695490320565 8.037088912754697 -1 0 1
21 3 1 1.1 8.68817359555301 5.878194290540209 8.492398044065453 0 -1 0
519 58 2 -0.55 9.564655550388597 5.2275302618892105 9.65045000988399 0 0 0
337 38 2 -0.55 8.510367613588581 7.058901831676325 5.198521474797958 0 -1 0
41 5 2 -0.55 12.864600898852066 3.998448899964977 6.17080695914634 -1 -1 1
445 50 2 -0.55 8.92582135012542 4.5111155673640155 2.317793715134196 0 0 0
235 27 1 1.1 13.281990015354442 6.174945245757463 8.69530513759241 0 0 -1
349 39 2 -0.55 18.543448450683755 6.180931766337272 5.693656297026836 0 0 1
247 28 2 -0.55 13.320100262368815 2.6632442553248303 4.134443770386141 -1 -1 0
115 13 2 -0.55 17.925146297035624 2.821121412070224 3.4510453275930137 0 1 1
83 10 1 1.1 16.34016558613407 2.6017662100935652 6.965736186618165 1 1 1
441 49 2 -0.55 15.419227213204852 3.3590854844350577 5.851122286714669 0 -1 0
334 38 1 1.1 17.990868230702837 6.372886824321906 4.144695338444035 0 0 0
310 35 2 -0.55 13.996635309043985 5.30989719275442 4.327782797332372 0 0 0
42 5 2 -0.55 17.07007583584565 5.222590857454062 3.5404168388947936 1 -1 0
37 5 1 1.1 14.005568161352036 3.810311296204172 5.089831493236499 -1 -1 0
571 64 2 -0.55 17.95255729198918 2.9687913598025926 7.087942832483849 0 0 1
343 39 1 1.1 14.079020927228395 6.976773297046309 4.411475357771529 1 0 0
553 62 2 -0.55 15.86003943895604 3.1295052344010674 8.400025222503665 -1 1 1
432 48 2 -0.55 17.16364665144323 5.5216494258913045 8.837389725750292 0 1 0
489 55 1 1.1 15.9495448176127 4.495730977975429 9.246117713225718 -1 0 1
449 50 2 -0.55 14.5749135103776 5.284319186820527 8.761529092103773 0 0 1
290 33 1 1.1 17.44835872826673 7.116094160394541 8.757349262001906 -1 -2 1
568 64 1 1.1 17.285827267907376 3.945654223336609 2.4917754663070393 0 1 2
185 21 2 -0.55 18.723692694458222 7.446346434078704 7.973774268397671 -2 0 0
401 45 2 -0.55 15.044504619515719 7.268400154356234 5.69962133275058 0 0 3
299 34 1 1.1 6.438585557259482 7.560603961411516 9.289580400225336 0 0 0
89 10 2 -0.55 3.4793923195747727 7.854075835269885 6.296596074456342 -1 -1 0
499 56 2 -0.55 6.0206884556674485 8.828785181736595 5.9025907974092835 1 1 1
357 40 2 -0.55 4.939846266232491 10.127681872788834 3.9703472558043735 1 -1 0
46 6 1 1.1 6.337199159069841 9.810063808324813 4.663100647978105 0 0 0
354 40 1 1.1 4.861510662917727 8.424108743175676 6.909629341694179 1 -1 0
76 9 2 -0.55 2.192909293453946 11.849722103747245 6.152761916814843 -1 0 -1
242 27 2 -0.55 6.816485673486982 11.255468890593905 5.1192291947238875 1 0 1
331 37 2 -0.55 4.830107580898228 12.610368450445344 6.240246213649494 -1 0 0
163 19 1 1.1 6.327013861037423 12.690013906183578 5.662584621484571 0 0 0
170 19 2 -0.55 4.501714217215885 9.678223105706715 7.782562912215319 -1 -1 0
19 3 1 1.1 3.391327838124088 10.122752509164334 8.817417430261415 1 0 -1
476 53 2 -0.55 3.688803854007726 11.67733439529187 9.249065039993642 2 0 -1
495 55 2 -0.55 1.9442941481421476 10.118535901222831 8.10587011957201 1 -1 1
487 55 1 1.1 4.231220590118928 9.931721061812606 2.583663792918172 0 0 1
423 47 2 -0.55 3.3942915511884952 8.603476143116872 2.7134267844044073 -1 0 0
91 11 1 1.1 3.271914301456473 13.034888249353505 6.191801148101209 1 0 0
485 54 2 -0.55 3.3113609490023315 11.213380542592642 2.34641581908496 0 -1 0
228 26 1 1.1 1.6815100749606062 10.933003571799821 18.11155318101089 1 1 -2
427 48 2 -0.55 7.437998535922222 9.077292587949467 3.7733997155166144 1 0 1
233 26 2 -0.55 7.350195314464527 8.903999621392323 9.14219593278435 -1 1 0
425 48 1 1.1 8.096063536407062 7.561737882437377 3.7367731223930027 -1 0 -1
259 29 2 -0.55 9.432919674401788 7.646559347898927 2.897886197266977 0 1 -1
133 15 2 -0.55 7.8681501023501355 11.230401343912598 10.246727675513442 -1 0 -1
473 53 2 -0.55 10.518196747105309 8.47179671873378 5.831777684591157 -1 0 2
300 34 1 1.1 11.849768753826591 9.139408118404365 5.3368673812767575 0 -1 2
546 61 2 -0.55 11.363960988548298 10.190963317573326 4.182527583741952 -1 1 1
549 61 2 -0.55 9.551757434833444 11.777184190681162 5.441204471720074 -1 1 1
109 13 1 1.1 8.84446164667185 12.02019488766459 6.888717424723887 0 0 0
23 3 2 -0.55 9.668517359223388 11.703861518234628 2.939874128609342 1 0 -1
164 19 1 1.1 10.589569308805325 11.605549204343337 4.2271414294947585 1 -1 1
394 44 2 -0.55 8.373011748526618 10.670961148970887 7.6239326204664355 0 0 1
544 61 2 -0.55 12.469941584179768 10.138932573747272 6.464882075887682 -2 0 1
420 47 2 -0.55 12.77247097577703 7.94567683611035 4.815736009502499 1 0 1
389 44 1 1.1 8.403107547998044 10.113990600256662 9.120755351729105 0 2 1
54 6 2 -0.55 9.879284232974998 9.677561723159162 9.559580646077723 -1 0 -2
230 26 2 -0.55 11.627222691110934 12.836529264125202 4.204395401295311 0 1 0
437 49 2 -0.55 7.5437480830135195 12.979516070280466 6.733571550261548 -1 -1 0
131 15 2 -0.55 9.873210319809516 12.770039231463459 7.829108347533638 1 1 0
566 63 2 -0.55 13.654525851129659 7.52792673830956 7.837403112080755 -1 1 1
216 24 2 -0.55 14.524568809573664 7.4635048703287055 2.9696561872218594 -1 -1 1
249 28 2 -0.55 16.232749187828084 7.789754884070696 7.922001117775774 -1 0 0
465 52 2 -0.55 17.35510835367058 7.891257474562119 3.992692604847456 0 -1 1
27 3 2 -0.55 18.3092746879719 10.325051784293361 3.38127110440447 0 0 1
137 16 1 1.1 18.360842246341782 10.819810297584363 6.845902879220404 -1 0 -1
172 20 1 1.1 14.939019387396979 8.1244905664061 7.068800624983384 1 0 0
374 42 2 -0.55 14.828465595397928 9.68486698162228 6.744052054851138 0 0 0
462 52 1 1.1 17.276317170051843 9.47330665849867 4.330767987899444 -1 -1 -1
302 34 2 -0.55 17.809878358986786 9.716666805512405 5.836031102856907 0 -1 0
211 24 2 -0.55 15.791519638636945 10.03573517794147 3.9568788497795917 1 -1 1
173 20 1 1.1 13.850931363168977 10.926632994222025 6.473148925499186 0 -1 1
195 22 2 -0.55 14.126119452125522 11.61206987648884 5.052027707110417 -2 0 0
451 51 1 1.1 15.17417632407281 11.558479871496143 3.810883176266211 0 0 1
405 45 2 -0.55 13.965942282243892 12.068594605587304 7.636979524946186 0 -1 2
275 31 2 -0.55 17.124872577013548 11.429759973875054 7.718117387809453 0 0 0
252 28 2 -0.55 15.720007727559004 12.768777454213781 9.316454322203182 1 0 0
84 10 1 1.1 16.800026955041112 11.613793022789428 9.301661869692245 0 1 0
393 44 2 -0.55 16.397427027028613 12.534460384010748 3.9764209760706413 -2 0 0
305 34 2 -0.55 16.174775369327055 10.214703654254775 9.907086292314007 0 0 0
135 15 2 -0.55 14.497855511159994 11.859396138546588 2.340431156066297 0 0 -1
6 1 2 -0.55 17.26276507225166 7.802993136611956 10.187074913244391 -1 0 0
332 37 2 -0.55 3.057105336595992 14.022376804461219 4.9428811030057895 0 -1 1
478 54 1 1.1 5.776774159236058 16.84841253342139 6.943175721089323 -1 -1 1
168 19 2 -0.55 6.011007530871456 16.43225605418958 5.349153108487016 1 -1 1
518 58 2 -0.55 6.50259876163696 13.869263754748998 4.538395023514065 1 0 0
479 54 1 1.1 6.915407229462121 15.38026152360217 4.539068906660488 0 -1 1
415 47 1 1.1 2.5719560414644413 18.136123670079805 4.515462506539009 1 0 1
373 42 2 -0.55 4.239137493796898 16.821390215386486 7.316183351658468 -2 1 0
520 58 2 -0.55 6.43484089980966 18.32923890889694 7.2207657632561375 1 0 1
528 59 2 -0.55 3.058692423541316 13.654611313982096 7.681981064447691 0 0 1
460 52 1 1.1 3.522270692796542 13.264263106299415 9.143146313284609 2 -1 1
116 13 2 -0.55 5.047444799698885 13.789053758607354 9.330273929675663 1 0 0
345 39 1 1.1 3.2237792992960728 17.301768401810875 8.52315643044152 -1 0 0
448 50 2 -0.55 3.508803387012808 16.509688943508884 9.878137759706235 0 0 -1
446 50 2 -0.55 6.649535512500212 15.724900672406422 7.73787523965297 1 -1 0
511 57 2 -0.55 2.507864032028793 16.55982864068256 4.68964485175414 1 -1 -1
134 15 2 -0.55 5.486565523016047 18.073693414698333 2.8194056236141583 0 -1 -1
406 46 1 1.1 1.8406435577673173 15.077607791325581 4.563808678270886 0 1 1
414 46 2 -0.55 2.216199407051522 18.462150522374195 3.0058078807252526 -1 -1 0
575 64 2 -0.55 7.508288512968298 14.539838861573765 9.877794698243324 1 -1 1
266 30 2 -0.55 8.408108665425416 15.706806930316182 4.786782173668736 -2 1 1
291 33 1 1.1 9.817753854979705 16.31874312799726 4.403837507813995 0 -1 1
527 59 2 -0.55 10.753847538106282 15.25314637875052 3.7531458141639042 -2 0 2
55 7 1 1.1 11.947593019434462 14.2270449997657 3.527658496758998 0 -1 -1
144 16 2 -0.55 10.604226467079078 17.036276915520816 5.640281421850402 0 0 0
167 19 2 -0.55 9.45590826783232 17.58041099676646 3.4347066417968497 -2 -1 0
412 46 2 -0.55 11.66063263807648 14.83444918003604 7.462661928160915 0 1 -1
536 60 2 -0.55 10.926304508058987 14.046368883208723 9.712231668421563 0 -1 2
488 55 1 1.1 10.426540103387795 14.22570894639514 8.232768075068115 0 -1 -1
399 45 1 1.1 7.837218178087238 15.665422209083376 8.818601580034958 -1 0 0
60 7 2 -0.55 9.214710932105797 15.259356577974794 8.080032575143655 -1 -1 -2
431 48 2 -0.55 8.060931572580436 17.057382434674373 9.596166594407428 1 -1 1
417 47 1 1.1 11.836684252462423 17.96186056605893 9.098450811619976 -1 0 -1
232 26 2 -0.55 10.653117682407345 17.288284962486216 9.922091453508646 -1 -1 -1
565 63 2 -0.55 12.92542405312574 16.902229649152154 8.644316635716622 0 1 0
352 40 1 1.1 13.025059483860906 15.626728876871544 7.712618361292198 -1 0 0
219 25 1 1.1 10.520718212700757 18.504894984225928 6.315311238153595 -2 -1 0
564 63 2 -0.55 18.89141156914433 17.101706652785758 8.104193566680078 -1 1 2
43 5 2 -0.55 13.22853984993737 14.925919645981205 4.14771615209433 0 -1 1
128 15 1 1.1 14.878385474438085 13.361930477333024 8.073955470232129 0 0 -1
148 17 2 -0.55 13.66760037249266 16.174550276877874 6.319963686636751 -2 0 1
502 56 2 -0.55 18.44869005330696 14.777224720677596 3.104611567831721 1 -1 0
28 4 1 1.1 16.534003910082177 15.127703656617028 6.192503146804934 0 -1 0
224 25 2 -0.55 18.010370384489725 14.924600535693992 5.743567717347483 -2 0 1
469 53 1 1.1 14.147936155692985 16.04905516575053 4.765365328082001 0 0 1
34 4 2 -0.55 15.71075718439719 15.619566369270144 4.847276228743903 0 -1 -1
157 18 2 -0.55 14.105998111097785 17.501049886331586 4.146801746225002 -2 1 1
159 18 2 -0.55 15.842939626538227 13.855582854422353 6.83086907177133 -2 -1 0
234 26 2 -0.55 16.54736269615494 16.447157725803585 7.185537327824813 -1 -1 1
368 41 2 -0.55 14.006218054884318 14.638639428424492 8.437067713403643 -3 1 0
453 51 1 1.1 17.308062096068113 16.94140001643678 8.519717268511506 -1 -2 0
61 7 2 -0.55 16.7745389715232 18.227103466745994 9.270669455364242 0 -1 0
285 32 2 -0.55 17.119858177653164 15.720605153462115 9.632415560588074 1 0 1
556 62 2 -0.55 6.654609955552673 -3.484703779460781 4.490696223437617 0 1 2
52 6 2 -0.55 3.836532955829952 23.90220316192366 9.381148412127526 1 0 -1
202 23 2 -0.55 4.062176199986752 18.738781611323986 4.866139010287771 0 -1 1
306 34 2 -0.55 6.699302080215955 19.17210672374741 4.8745924237309755 0 -1 0
442 50 1 1.1 5.3724566268278195 19.10615677532512 4.053305420136554 0 -1 0
475 53 2 -0.55 3.5633313204746715 22.52782150250404 4.135867703899525 -1 -1 1
323 36 2 -0.55 5.962023292350651 23.232433752033046 6.833194626214049 2 -1 1
439 49 2 -0.55 5.137128844033834 20.569962760401026 3.4341629980951645 -1 -1 1
56 7 1 1.1 4.010602080211159 21.60208748489662 2.920371547111703 -1 0 0
104 12 2 -0.55 2.2637888519231746 20.71089317689637 7.185395215652639 0 -1 -1
112 13 2 -0.55 4.820635866091912 20.947346913747836 7.577834276030277 2 -1 -2
372 42 1 1.1 6.19110426623162 21.768731061968438 7.56193452815942 -1 -1 -1
40 5 2 -0.55 3.446851605949238 18.937202384798816 8.627439568990013 -2 0 1
271 31 1 1.1 3.4799809827935384 20.518389468505113 8.283163817253254 1 0 0
293 33 2 -0.55 3.326447929332425 21.329918808110733 9.61347545673269 1 -1 1
50 6 2 -0.55 6.70584737667469 22.1162038866671 9.056748865285886 -1 0 0
2 1 1 1.1 2.0552835564285097 22.795590625436603 4.449514255520576 1 -1 0
315 35 2 -0.55 7.315045663071994 20.847291491925468 6.802600460117087 1 -1 2
461 52 1 1.1 3.0558400217193205 22.777665665821168 10.203685093124658 1 -1 1
482 54 2 -0.55 18.88316530208038 23.830572102123448 5.653504060495436 -1 0 1
386 43 2 -0.55 8.51575661271699 24.01705334802734 9.778763566324084 0 -1 0
267 30 2 -0.55 11.19547752458493 18.60330856722547 7.747051938478791 0 0 0
199 23 1 1.1 7.363571242905217 19.298719283579267 6.342011604255616 1 0 0
251 28 2 -0.55 11.847850107201113 23.948374984397446 2.704855590665631 0 1 0
264 30 1 1.1 7.854870767653569 23.603931116314584 3.595424650030948 -2 0 1
57 7 1 1.1 9.743357671852346 19.029701623072974 2.895708951613034 0 -1 1
96 11 2 -0.55 8.902386637405268 18.88202562600867 6.457105407054988 0 0 0
541 61 1 1.1 11.063028438359547 22.93586685655515 6.857481200509425 0 0 -1
283 32 2 -0.55 11.55974164064968 19.520192074654787 5.403271841165596 1 0 1
367 41 2 -0.55 11.370176600382838 19.19416217016014 2.8201928679288395 0 -1 0
365 41 2 -0.55 8.634568220218863 22.572785114557426 4.620681319105463 1 0 1
73 9 1 1.1 9.359600760782389 21.26676391961304 5.073131575661931 -1 0 0
103 12 2 -0.55 10.127707003386858 21.68612006145416 6.415562039396973 0 0 0
257 29 2 -0.55 11.62687963040866 23.517746254751124 5.458075799985805 0 -1 1
238 27 2 -0.55 9.280722257852794 20.056738748748856 4.085592698353956 1 -1 1
326 37 1 1.1 12.01791257744624 20.078163724135358 3.9729832976731974 1 -1 1
312 35 2 -0.55 11.581706209024805 21.64024404862824 3.856899596972848 0 0 0
190 22 1 1.1 12.216648618632542 23.116881609342855 4.061072461063169 0 -1 0
313 35 2 -0.55 12.080481765772422 22.499243169361556 8.096852141009137 1 0 2
497 56 1 1.1 12.051378834694676 22.3632245080315 9.73477898315991 0 -1 1
413 46 2 -0.55 10.717278949788573 21.43589662176943 10.035259062503957 -1 0 -1
545 61 2 -0.55 12.548695285683367 19.054664688474332 10.125408392335746 -1 0 1
48 6 1 1.1 7.4774635838940515 22.86569597687862 10.234522364497026 0 -1 -2
340 38 2 -0.55 12.09211287408848 23.79057663987451 10.253143212849908 0 -1 -1
391 44 2 -0.55 9.03157569805683 19.345291495125714 10.27966700806997 0 0 1
278 31 2 -0.55 18.683078745196248 18.864118394500224 5.513717736254166 0 1 0
328 37 2 -0.55 18.75220117366826 23.343999013918676 3.0258451824691117 0 0 0
253 29 1 1.1 15.194089061421838 23.91238117438119 3.6670153368683773 -2 0 1
438 49 2 -0.55 16.17321871296551 24.03066517023641 7.748823745602121 0 -1 0
105 12 2 -0.55 18.602640116040533 21.370535251571766 4.795925000877452 -1 -1 -1
155 18 1 1.1 18.40218825822872 20.340156464043034 6.058232095690908 -1 -1 1
101 12 1 1.1 14.723883971370912 19.00146916559425 4.275879335814048 -1 -1 0
95 11 2 -0.55 16.067642884434285 19.236473100258095 3.418768751684545 -1 1 1
567 63 2 -0.55 15.989187007557407 23.828187922139193 5.043655614295175 -2 0 0
189 21 2 -0.55 13.607832937582117 20.002096907573893 3.750262226467922 -2 -1 1
440 49 2 -0.55 14.929309817917261 19.325758940583107 5.8080104800588686 -1 -1 1
74 9 1 1.1 15.382575468875897 20.482499082591403 6.788644673559363 -2 0 -1
522 58 2 -0.55 13.805210154531974 23.125364841232248 4.104828513900506 0 -1 0
317 36 1 1.1 15.278680682421092 23.64235112353014 6.4536560992894065 -1 -1 1
122 14 2 -0.55 16.957283858767486 20.639767737112926 6.607581215230541 -1 0 1
14 2 2 -0.55 14.850085208164623 22.032263837631035 6.53600738326171 -2 -1 0
387 43 2 -0.55 15.112334094072049 20.02146569976668 8.322245532160522 -3 0 1
186 21 2 -0.55 17.145586797688615 20.802329534590008 9.560845574582396 -2 -1 1
335 38 1 1.1 16.07458448182238 19.61654676798677 9.533124639768381 0 -1 0
79 9 2 -0.55 15.773634234926089 23.133813498471675 2.4056112523700506 -1 0 0
121 14 2 -0.55 18.741834783781812 22.978616272649305 9.857385593279211 -1 -1 -1
297 33 2 -0.55 16.261100713324332 23.201246854200704 10.171838167717851 0 -1 0
218 25 1 1.1 4.532442252207248 -1.6132853359093224 18.25345026980437 1 0 0
284 32 2 -0.55 5.486630616484867 0.37604553101845983 10.839370997234996 0 0 0
311 35 2 -0.55 2.986649475061871 1.0769836052004367 11.409438315486767 1 0 0
426 48 1 1.1 4.5124117973939635 1.4801608987390171 11.476014265087079 2 0 0
123 14 2 -0.55 6.281221251759146 -2.9191605739272948 13.520226357581096 0 1 0
353 40 1 1.1 6.202527145755603 -1.7639317902464384 14.674682678563176 -1 1 0
490 55 2 -0.55 4.652504835859442 -1.6917637656197742 14.970338909985227 1 0 1
316 36 1 1.1 3.392814676108089 -0.8004199064328605 14.92395922035484 0 -1 0
53 6 2 -0.55 6.756269416113622 -0.3601314620876295 14.056774755922135 0 1 -2
322 36 2 -0.55 4.615235013498653 -0.3068751984743967 17.292345292763656 1 0 1
554 62 2 -0.55 5.643553366279492 -2.6540637916569922 17.82575637294262 -1 2 -1
466 52 2 -0.55 3.397792464876376 0.7626061778639306 14.957558718287626 1 0 0
576 64 2 -0.55 2.092455961561104 -1.2725751826428424 14.13904802437228 1 1 0
508 57 2 -0.55 6.915816938312993 0.789686333960451 17.68624872444554 1 0 0
245 28 1 1.1 5.412043479396971 1.107753749499511 17.189067732303016 0 0 -2
142 16 2 -0.55 5.067476304993651 1.7443899741785769 13.052616168678174 0 1 0
308 35 1 1.1 4.4613419498340345 1.9547883067421656 14.523002195421551 0 0 -1
166 19 2 -0.55 7.292365170131989 -2.050154084795315 15.809637682840767 1 0 0
222 25 2 -0.55 5.486926502642265 1.8516683605952036 15.770335649853926 0 0 0
156 18 1 1.1 1.7326608145052371 -3.144374282263073 17.92371943692186 1 0 -1
108 12 2 -0.55 1.701985908606053 24.06623884403907 16.416040822881783 1 0 -2
250 28 2 -0.55 9.460973643294551 -1.4043556488977882 10.997354173031866 0 1 -1
146 17 1 1.1 9.963089313192198 -0.07510705270522688 11.751284843243852 -1 0 -1
176 20 2 -0.55 10.52795501950251 1.0079589996134102 10.75898503177015 0 0 0
375 42 2 -0.55 8.787991716872725 0.5388279280633137 12.627826599944731 0 0 -1
114 13 2 -0.55 11.227805191802894 -0.4053059559737924 12.742580800750426 -1 1 -1
210 24 1 1.1 12.203938078504612 -1.6379725326353798 13.012421283159155 0 0 -1
38 5 1 1.1 8.222832600512223 0.26373383744411294 14.089005601595105 -1 0 -1
428 48 2 -0.55 12.298223037279866 -0.16406679777915567 16.408795848200466 2 1 0
402 45 2 -0.55 9.151215680028258 -0.815342549008172 14.807151537535498 0 0 0
47 6 1 1.1 8.892438928611469 -1.9566696055511374 15.906039722156287 -1 0 0
447 50 2 -0.55 9.384798982569936 -1.4086864825760865 17.38672985486388 -1 0 1
464 52 2 -0.55 12.06884276867579 -2.943195760722052 16.241233852244967 1 0 0
82 10 1 1.1 12.707457642184242 0.8788855057951039 17.55257896557608 0 1 0
573 64 2 -0.55 11.269185590392313 -2.966145452474483 13.173272411148075 0 1 0
204 23 2 -0.55 8.45339423696214 1.6860585954735372 14.909331623952287 0 0 0
260 29 2 -0.55 9.465254757818062 -3.269292618116674 15.199419195319132 -2 0 0
64 8 1 1.1 12.871384196966892 -1.5916216751631047 15.99527252524371 0 1 0
5 1 2 -0.55 8.638477666248171 -3.4868226014221335 12.727565143614994 0 0 0
563 63 2 -0.55 13.144231405418122 -1.5325692390122778 14.36510939237025 -1 1 0
510 57 2 -0.55 13.165273977160343 -1.836883315882863 11.739576746851892 -1 -1 1
454 51 2 -0.55 17.881841082367252 -1.9704016991130329 18.134495508907527 -1 1 1
523 59 1 1.1 14.804822087915149 -1.0515005436340727 18.166822050981455 -1 1 -2
98 11 2 -0.55 16.1602638269705 -0.19346380413477116 17.877904235964568 2 1 -1
182 21 1 1.1 18.80303218906362 1.2249608443456985 10.648265265015318 -1 0 0
111 13 1 1.1 17.994237896015285 -1.6795603775774068 10.718973334865435 0 1 0
540 60 2 -0.55 17.90549286760131 -0.06821414859316333 11.081009637401303 0 0 0
117 13 2 -0.55 17.682135973178994 -2.637210720118277 11.959989111841987 0 1 -1
514 58 1 1.1 16.773306136878347 -3.03745611762483 13.218417713717784 -2 0 1
397 45 1 1.1 17.705025808834456 -0.4437654447797943 17.68480648402841 0 0 1
574 64 2 -0.55 14.269234814675459 -1.763728145538685 16.803331592787544 1 0 0
516 58 1 1.1 17.89600163363695 -0.7176470845485858 14.608389596320846 -1 0 0
8 1 2 -0.55 18.091281769468523 -0.3021288715845265 16.14770979874436 1 -1 0
25 3 2 -0.55 16.828663008814555 -1.9211561201438414 14.304575921669016 0 -1 -1
67 8 2 -0.55 17.50804780522791 0.6672734172641066 13.85885263023104 0 0 -1
223 25 2 -0.55 13.722339438178102 1.9721889708247238 16.868379900483433 1 0 -1
435 49 1 1.1 5.652545383558513 4.041573442577058 10.348319967941817 0 0 1
205 23 2 -0.55 4.639853582936883 2.1133425781716353 18.25445433918465 -1 1 0
78 9 2 -0.55 2.521555767568647 5.988970502332998 10.43513167847774 0 0 1
279 31 2 -0.55 4.667022418928987 2.8446139101100183 10.727759385352314 0 0 -2
160 18 2 -0.55 6.376703557280565 4.589531397034019 11.759777387238515 1 0 -1
175 20 2 -0.55 3.560908411534034 5.300313703379718 12.78612286794195 1 0 -1
474 53 2 -0.55 3.6372532540416675 6.603328889260851 17.227673392655614 0 1 0
15 2 2 -0.55 3.6669381652506168 3.295297432307499 14.410336053287987 0 0 0
272 31 1 1.1 3.6911609754403036 4.879726518618439 14.326329534301065 -1 0 -1
145 17 1 1.1 6.371538244169851 6.075383580567689 15.380451005284971 0 -1 0
378 42 2 -0.55 4.898541279967851 5.432447348688331 15.151988929061083 1 0 -2
381 43 1 1.1 2.68407977887754 6.84974711726478 15.970321691479993 1 0 0
330 37 2 -0.55 6.822507144756045 6.073812627323866 13.841523833473248 0 1 0
555 62 2 -0.55 2.3892837652805246 5.39140626659913 15.20622676724816 1 0 -1
480 54 1 1.1 2.275011799722697 6.021488030767218 12.026663800747595 0 0 0
295 33 2 -0.55 7.327729554979724 5.238108652955713 16.323169980947444 0 -1 0
411 46 2 -0.55 2.0638333732299783 7.4961632592781875 12.65170531782841 0 0 0
348 39 2 -0.55 12.940887066305086 6.6000541403368125 10.200050607099744 0 -1 0
506 57 1 1.1 11.765335390885857 2.042862109618004 10.519968063875286 0 1 -1
200 23 1 1.1 7.502767768895551 5.134044400134634 12.7529946489462 0 0 1
463 52 2 -0.55 12.297473767707919 2.7654740117449723 11.84127530850739 0 0 0
141 16 2 -0.55 10.92049981539069 4.946555922560378 11.962847844261026 0 0 0
183 21 1 1.1 9.929151397575579 5.8593109837048125 11.100555542477892 1 0 0
370 42 1 1.1 11.724776528557305 3.820986416024354 12.840452401799153 1 0 0
557 62 2 -0.55 8.575534650572296 5.99649782067695 11.953439929684906 -1 -1 0
153 17 2 -0.55 8.206579934345685 3.914178108968117 13.592914721840808 -1 0 -1
171 19 2 -0.55 10.695516381566874 3.0066719494301335 13.825206873593368 0 0 -2
318 36 1 1.1 9.219428699169097 3.0926220559349806 14.522098967522354 1 0 0
543 61 1 1.1 8.834683377662211 4.974748986324991 16.861522822764556 1 1 0
450 50 2 -0.55 9.458690831717878 3.8145956963107643 15.929884701661466 0 -1 0
504 56 2 -0.55 9.606008072670594 6.3655246142125606 16.698887552035885 1 0 -1
31 4 2 -0.55 12.72775082365626 4.786002846452879 13.660695984502297 -1 -1 0
455 51 2 -0.55 12.23264941187574 6.847080832918591 15.172278655235296 0 0 0
22 3 2 -0.55 10.322259142863599 7.385892536436659 10.796792750894745 -1 0 -1
364 41 2 -0.55 12.98821180767731 7.255056019649318 12.700853129918562 0 0 0
298 34 1 1.1 13.151134581288483 6.301230573099064 13.98388667596562 -1 0 0
324 36 2 -0.55 15.95506767707126 2.0300319403495655 15.57435039342706 1 0 0