ITEM: TIMESTEP
0
ITEM: NUMBER OF ATOMS
576
ITEM: BOX BOUNDS pp pp pp
0.0000000000000000e+00 2.0585577711599999e+01
0.0000000000000000e+00 2.0585577711599999e+01
0.0000000000000000e+00 2.0585577711599999e+01
ITEM: ATOMS id type xs ys zs
1 1 0.112157 0 0.175048
4 2 0.0668428 0.0554174 0.206224
151 2 0.0145715 0.0855963 0.0437758
295 2 0.0145715 0.0855963 0.293776
37 1 0.112157 0.25 0.175048
40 2 0.0668428 0.305417 0.206224
42 2 0.0145715 0.164404 0.293748
189 2 0.0668428 0.194583 0.1313
474 2 0.0145715 0.164404 0.0437482
11 1 0.193922 0.0971304 0.087524
13 2 0.316843 0.0554174 0.206224
160 2 0.264572 0.0855963 0.0437758
304 2 0.264572 0.0855963 0.293776
446 2 0.168586 0.0301788 0.131272
48 1 0.193922 0.15287 0
49 2 0.316843 0.305417 0.206224
51 2 0.264572 0.164404 0.293748
192 1 0.193922 0.15287 0.25
197 2 0.168586 0.219821 0.218824
198 2 0.316843 0.194583 0.1313
482 2 0.168586 0.280179 0.131272
483 2 0.264572 0.164404 0.0437482
10 1 0.362157 0 0.175048
46 1 0.362157 0.25 0.175048
19 1 0.612157 0 0.175048
20 1 0.443922 0.0971304 0.087524
22 2 0.566843 0.0554174 0.206224
169 2 0.514572 0.0855963 0.0437758
313 2 0.514572 0.0855963 0.293776
455 2 0.418586 0.0301788 0.131272
55 1 0.612157 0.25 0.175048
57 1 0.443922 0.15287 0
58 2 0.566843 0.305417 0.206224
60 2 0.514572 0.164404 0.293748
201 1 0.443922 0.15287 0.25
206 2 0.418586 0.219821 0.218824
207 2 0.566843 0.194583 0.1313
491 2 0.418586 0.280179 0.131272
492 2 0.514572 0.164404 0.0437482
2 1 0.943922 0.0971304 0.087524
437 2 0.918586 0.0301788 0.131272
39 1 0.943922 0.15287 0
183 1 0.943922 0.15287 0.25
188 2 0.918586 0.219821 0.218824
473 2 0.918586 0.280179 0.131272
28 1 0.862157 0 0.175048
29 1 0.693922 0.0971304 0.087524
31 2 0.816843 0.0554174 0.206224
178 2 0.764572 0.0855963 0.0437758
322 2 0.764572 0.0855963 0.293776
464 2 0.668586 0.0301788 0.131272
64 1 0.862157 0.25 0.175048
66 1 0.693922 0.15287 0
67 2 0.816843 0.305417 0.206224
69 2 0.764572 0.164404 0.293748
210 1 0.693922 0.15287 0.25
215 2 0.668586 0.219821 0.218824
216 2 0.816843 0.194583 0.1313
500 2 0.668586 0.280179 0.131272
501 2 0.764572 0.164404 0.0437482
187 2 0.0145715 0.335596 0.0437758
331 2 0.0145715 0.335596 0.293776
73 1 0.112157 0.5 0.175048
76 2 0.0668428 0.555417 0.206224
78 2 0.0145715 0.414404 0.293748
223 2 0.0145715 0.585596 0.0437758
225 2 0.0668428 0.444583 0.1313
367 2 0.0145715 0.585596 0.293776
510 2 0.0145715 0.414404 0.0437482
114 2 0.0145715 0.664404 0.293748
546 2 0.0145715 0.664404 0.0437482
47 1 0.193922 0.34713 0.087524
196 2 0.264572 0.335596 0.0437758
340 2 0.264572 0.335596 0.293776
83 1 0.193922 0.59713 0.087524
84 1 0.193922 0.40287 0
85 2 0.316843 0.555417 0.206224
87 2 0.264572 0.414404 0.293748
228 1 0.193922 0.40287 0.25
232 2 0.264572 0.585596 0.0437758
233 2 0.168586 0.469821 0.218824
234 2 0.316843 0.444583 0.1313
376 2 0.264572 0.585596 0.293776
518 2 0.168586 0.530179 0.131272
519 2 0.264572 0.414404 0.0437482
120 1 0.193922 0.65287 0
123 2 0.264572 0.664404 0.293748
264 1 0.193922 0.65287 0.25
555 2 0.264572 0.664404 0.0437482
82 1 0.362157 0.5 0.175048
56 1 0.443922 0.34713 0.087524
205 2 0.514572 0.335596 0.0437758
349 2 0.514572 0.335596 0.293776
91 1 0.612157 0.5 0.175048
92 1 0.443922 0.59713 0.087524
93 1 0.443922 0.40287 0
94 2 0.566843 0.555417 0.206224
96 2 0.514572 0.414404 0.293748
237 1 0.443922 0.40287 0.25
241 2 0.514572 0.585596 0.0437758
242 2 0.418586 0.469821 0.218824
243 2 0.566843 0.444583 0.1313
385 2 0.514572 0.585596 0.293776
527 2 0.418586 0.530179 0.131272
528 2 0.514572 0.414404 0.0437482
129 1 0.443922 0.65287 0
132 2 0.514572 0.664404 0.293748
273 1 0.443922 0.65287 0.25
564 2 0.514572 0.664404 0.0437482
38 1 0.943922 0.34713 0.087524
74 1 0.943922 0.59713 0.087524
75 1 0.943922 0.40287 0
219 1 0.943922 0.40287 0.25
224 2 0.918586 0.469821 0.218824
509 2 0.918586 0.530179 0.131272
111 1 0.943922 0.65287 0
255 1 0.943922 0.65287 0.25
65 1 0.693922 0.34713 0.087524
214 2 0.764572 0.335596 0.0437758
358 2 0.764572 0.335596 0.293776
100 1 0.862157 0.5 0.175048
101 1 0.693922 0.59713 0.087524
102 1 0.693922 0.40287 0
103 2 0.816843 0.555417 0.206224
105 2 0.764572 0.414404 0.293748
246 1 0.693922 0.40287 0.25
250 2 0.764572 0.585596 0.0437758
251 2 0.668586 0.469821 0.218824
252 2 0.816843 0.444583 0.1313
394 2 0.764572 0.585596 0.293776
536 2 0.668586 0.530179 0.131272
537 2 0.764572 0.414404 0.0437482
138 1 0.693922 0.65287 0
141 2 0.764572 0.664404 0.293748
282 1 0.693922 0.65287 0.25
573 2 0.764572 0.664404 0.0437482
6 2 0.0145715 0.914404 0.293748
153 2 0.0668428 0.944583 0.1313
438 2 0.0145715 0.914404 0.0437482
109 1 0.112157 0.75 0.175048
112 2 0.0668428 0.805417 0.206224
259 2 0.0145715 0.835596 0.0437758
261 2 0.0668428 0.694583 0.1313
403 2 0.0145715 0.835596 0.293776
12 1 0.193922 0.90287 0
15 2 0.264572 0.914404 0.293748
156 1 0.193922 0.90287 0.25
161 2 0.168586 0.969821 0.218824
162 2 0.316843 0.944583 0.1313
447 2 0.264572 0.914404 0.0437482
119 1 0.193922 0.84713 0.087524
121 2 0.316843 0.805417 0.206224
268 2 0.264572 0.835596 0.0437758
269 2 0.168586 0.719821 0.218824
270 2 0.316843 0.694583 0.1313
412 2 0.264572 0.835596 0.293776
554 2 0.168586 0.780179 0.131272
118 1 0.362157 0.75 0.175048
21 1 0.443922 0.90287 0
24 2 0.514572 0.914404 0.293748
165 1 0.443922 0.90287 0.25
170 2 0.418586 0.969821 0.218824
171 2 0.566843 0.944583 0.1313
456 2 0.514572 0.914404 0.0437482
127 1 0.612157 0.75 0.175048
128 1 0.443922 0.84713 0.087524
130 2 0.566843 0.805417 0.206224
277 2 0.514572 0.835596 0.0437758
278 2 0.418586 0.719821 0.218824
279 2 0.566843 0.694583 0.1313
421 2 0.514572 0.835596 0.293776
563 2 0.418586 0.780179 0.131272
3 1 0.943922 0.90287 0
147 1 0.943922 0.90287 0.25
152 2 0.918586 0.969821 0.218824
110 1 0.943922 0.84713 0.087524
260 2 0.918586 0.719821 0.218824
545 2 0.918586 0.780179 0.131272
30 1 0.693922 0.90287 0
33 2 0.764572 0.914404 0.293748
174 1 0.693922 0.90287 0.25
179 2 0.668586 0.969821 0.218824
180 2 0.816843 0.944583 0.1313
465 2 0.764572 0.914404 0.0437482
136 1 0.862157 0.75 0.175048
137 1 0.693922 0.84713 0.087524
139 2 0.816843 0.805417 0.206224
286 2 0.764572 0.835596 0.0437758
287 2 0.668586 0.719821 0.218824
288 2 0.816843 0.694583 0.1313
430 2 0.764572 0.835596 0.293776
572 2 0.668586 0.780179 0.131272
145 1 0.112157 0 0.425048
148 2 0.0668428 0.0554174 0.456224
439 2 0.0145715 0.0855963 0.543776
181 1 0.112157 0.25 0.425048
184 2 0.0668428 0.305417 0.456224
186 2 0.0145715 0.164404 0.543748
333 2 0.0668428 0.194583 0.3813
477 2 0.0668428 0.194583 0.6313
14 2 0.168586 0.0301788 0.381272
155 1 0.193922 0.0971304 0.337524
157 2 0.316843 0.0554174 0.456224
158 2 0.168586 0.0301788 0.631272
299 1 0.193922 0.0971304 0.587524
448 2 0.264572 0.0855963 0.543776
50 2 0.168586 0.280179 0.381272
193 2 0.316843 0.305417 0.456224
194 2 0.168586 0.280179 0.631272
195 2 0.264572 0.164404 0.543748
336 1 0.193922 0.15287 0.5
341 2 0.168586 0.219821 0.468824
342 2 0.316843 0.194583 0.3813
486 2 0.316843 0.194583 0.6313
154 1 0.362157 0 0.425048
190 1 0.362157 0.25 0.425048
23 2 0.418586 0.0301788 0.381272
163 1 0.612157 0 0.425048
164 1 0.443922 0.0971304 0.337524
166 2 0.566843 0.0554174 0.456224
167 2 0.418586 0.0301788 0.631272
308 1 0.443922 0.0971304 0.587524
457 2 0.514572 0.0855963 0.543776
59 2 0.418586 0.280179 0.381272
199 1 0.612157 0.25 0.425048
202 2 0.566843 0.305417 0.456224
203 2 0.418586 0.280179 0.631272
204 2 0.514572 0.164404 0.543748
345 1 0.443922 0.15287 0.5
350 2 0.418586 0.219821 0.468824
351 2 0.566843 0.194583 0.3813
495 2 0.566843 0.194583 0.6313
5 2 0.918586 0.0301788 0.381272
146 1 0.943922 0.0971304 0.337524
149 2 0.918586 0.0301788 0.631272
290 1 0.943922 0.0971304 0.587524
41 2 0.918586 0.280179 0.381272
185 2 0.918586 0.280179 0.631272
327 1 0.943922 0.15287 0.5
332 2 0.918586 0.219821 0.468824
32 2 0.668586 0.0301788 0.381272
172 1 0.862157 0 0.425048
173 1 0.693922 0.0971304 0.337524
175 2 0.816843 0.0554174 0.456224
176 2 0.668586 0.0301788 0.631272
317 1 0.693922 0.0971304 0.587524
466 2 0.764572 0.0855963 0.543776
68 2 0.668586 0.280179 0.381272
208 1 0.862157 0.25 0.425048
211 2 0.816843 0.305417 0.456224
212 2 0.668586 0.280179 0.631272
213 2 0.764572 0.164404 0.543748
354 1 0.693922 0.15287 0.5
359 2 0.668586 0.219821 0.468824
360 2 0.816843 0.194583 0.3813
504 2 0.816843 0.194583 0.6313
475 2 0.0145715 0.335596 0.543776
217 1 0.112157 0.5 0.425048
220 2 0.0668428 0.555417 0.456224
222 2 0.0145715 0.414404 0.543748
369 2 0.0668428 0.444583 0.3813
511 2 0.0145715 0.585596 0.543776
513 2 0.0668428 0.444583 0.6313
258 2 0.0145715 0.664404 0.543748
191 1 0.193922 0.34713 0.337524
335 1 0.193922 0.34713 0.587524
484 2 0.264572 0.335596 0.543776
86 2 0.168586 0.530179 0.381272
227 1 0.193922 0.59713 0.337524
229 2 0.316843 0.555417 0.456224
230 2 0.168586 0.530179 0.631272
231 2 0.264572 0.414404 0.543748
371 1 0.193922 0.59713 0.587524
372 1 0.193922 0.40287 0.5
377 2 0.168586 0.469821 0.468824
378 2 0.316843 0.444583 0.3813
520 2 0.264572 0.585596 0.543776
522 2 0.316843 0.444583 0.6313
267 2 0.264572 0.664404 0.543748
408 1 0.193922 0.65287 0.5
226 1 0.362157 0.5 0.425048
200 1 0.443922 0.34713 0.337524
344 1 0.443922 0.34713 0.587524
493 2 0.514572 0.335596 0.543776
95 2 0.418586 0.530179 0.381272
235 1 0.612157 0.5 0.425048
236 1 0.443922 0.59713 0.337524
238 2 0.566843 0.555417 0.456224
239 2 0.418586 0.530179 0.631272
240 2 0.514572 0.414404 0.543748
380 1 0.443922 0.59713 0.587524
381 1 0.443922 0.40287 0.5
386 2 0.418586 0.469821 0.468824
387 2 0.566843 0.444583 0.3813
529 2 0.514572 0.585596 0.543776
531 2 0.566843 0.444583 0.6313
276 2 0.514572 0.664404 0.543748
417 1 0.443922 0.65287 0.5
182 1 0.943922 0.34713 0.337524
326 1 0.943922 0.34713 0.587524
77 2 0.918586 0.530179 0.381272
218 1 0.943922 0.59713 0.337524
221 2 0.918586 0.530179 0.631272
362 1 0.943922 0.59713 0.587524
363 1 0.943922 0.40287 0.5
368 2 0.918586 0.469821 0.468824
399 1 0.943922 0.65287 0.5
209 1 0.693922 0.34713 0.337524
353 1 0.693922 0.34713 0.587524
502 2 0.764572 0.335596 0.543776
104 2 0.668586 0.530179 0.381272
244 1 0.862157 0.5 0.425048
245 1 0.693922 0.59713 0.337524
247 2 0.816843 0.555417 0.456224
248 2 0.668586 0.530179 0.631272
249 2 0.764572 0.414404 0.543748
389 1 0.693922 0.59713 0.587524
390 1 0.693922 0.40287 0.5
395 2 0.668586 0.469821 0.468824
396 2 0.816843 0.444583 0.3813
538 2 0.764572 0.585596 0.543776
540 2 0.816843 0.444583 0.6313
285 2 0.764572 0.664404 0.543748
426 1 0.693922 0.65287 0.5
150 2 0.0145715 0.914404 0.543748
297 2 0.0668428 0.944583 0.3813
441 2 0.0668428 0.944583 0.6313
253 1 0.112157 0.75 0.425048
256 2 0.0668428 0.805417 0.456224
405 2 0.0668428 0.694583 0.3813
547 2 0.0145715 0.835596 0.543776
549 2 0.0668428 0.694583 0.6313
159 2 0.264572 0.914404 0.543748
300 1 0.193922 0.90287 0.5
305 2 0.168586 0.969821 0.468824
306 2 0.316843 0.944583 0.3813
450 2 0.316843 0.944583 0.6313
122 2 0.168586 0.780179 0.381272
263 1 0.193922 0.84713 0.337524
265 2 0.316843 0.805417 0.456224
266 2 0.168586 0.780179 0.631272
407 1 0.193922 0.84713 0.587524
413 2 0.168586 0.719821 0.468824
414 2 0.316843 0.694583 0.3813
556 2 0.264572 0.835596 0.543776
558 2 0.316843 0.694583 0.6313
262 1 0.362157 0.75 0.425048
168 2 0.514572 0.914404 0.543748
309 1 0.443922 0.90287 0.5
314 2 0.418586 0.969821 0.468824
315 2 0.566843 0.944583 0.3813
459 2 0.566843 0.944583 0.6313
131 2 0.418586 0.780179 0.381272
271 1 0.612157 0.75 0.425048
272 1 0.443922 0.84713 0.337524
274 2 0.566843 0.805417 0.456224
275 2 0.418586 0.780179 0.631272
416 1 0.443922 0.84713 0.587524
422 2 0.418586 0.719821 0.468824
423 2 0.566843 0.694583 0.3813
565 2 0.514572 0.835596 0.543776
567 2 0.566843 0.694583 0.6313
291 1 0.943922 0.90287 0.5
296 2 0.918586 0.969821 0.468824
113 2 0.918586 0.780179 0.381272
254 1 0.943922 0.84713 0.337524
257 2 0.918586 0.780179 0.631272
398 1 0.943922 0.84713 0.587524
404 2 0.918586 0.719821 0.468824
177 2 0.764572 0.914404 0.543748
318 1 0.693922 0.90287 0.5
323 2 0.668586 0.969821 0.468824
324 2 0.816843 0.944583 0.3813
468 2 0.816843 0.944583 0.6313
140 2 0.668586 0.780179 0.381272
280 1 0.862157 0.75 0.425048
281 1 0.693922 0.84713 0.337524
283 2 0.816843 0.805417 0.456224
284 2 0.668586 0.780179 0.631272
425 1 0.693922 0.84713 0.587524
431 2 0.668586 0.719821 0.468824
432 2 0.816843 0.694583 0.3813
574 2 0.764572 0.835596 0.543776
576 2 0.816843 0.694583 0.6313
7 2 0.0145715 0.0855963 0.793776
289 1 0.112157 0 0.675048
292 2 0.0668428 0.0554174 0.706224
433 1 0.112157 0 0.925048
436 2 0.0668428 0.0554174 0.956224
45 2 0.0668428 0.194583 0.8813
325 1 0.112157 0.25 0.675048
328 2 0.0668428 0.305417 0.706224
330 2 0.0145715 0.164404 0.793748
469 1 0.112157 0.25 0.925048
472 2 0.0668428 0.305417 0.956224
16 2 0.264572 0.0855963 0.793776
301 2 0.316843 0.0554174 0.706224
302 2 0.168586 0.0301788 0.881272
443 1 0.193922 0.0971304 0.837524
445 2 0.316843 0.0554174 0.956224
53 2 0.168586 0.219821 0.968824
54 2 0.316843 0.194583 0.8813
337 2 0.316843 0.305417 0.706224
338 2 0.168586 0.280179 0.881272
339 2 0.264572 0.164404 0.793748
480 1 0.193922 0.15287 0.75
481 2 0.316843 0.305417 0.956224
485 2 0.168586 0.219821 0.718824
298 1 0.362157 0 0.675048
442 1 0.362157 0 0.925048
334 1 0.362157 0.25 0.675048
478 1 0.362157 0.25 0.925048
25 2 0.514572 0.0855963 0.793776
307 1 0.612157 0 0.675048
310 2 0.566843 0.0554174 0.706224
311 2 0.418586 0.0301788 0.881272
451 1 0.612157 0 0.925048
452 1 0.443922 0.0971304 0.837524
454 2 0.566843 0.0554174 0.956224
62 2 0.418586 0.219821 0.968824
63 2 0.566843 0.194583 0.8813
343 1 0.612157 0.25 0.675048
346 2 0.566843 0.305417 0.706224
347 2 0.418586 0.280179 0.881272
348 2 0.514572 0.164404 0.793748
487 1 0.612157 0.25 0.925048
489 1 0.443922 0.15287 0.75
490 2 0.566843 0.305417 0.956224
494 2 0.418586 0.219821 0.718824
293 2 0.918586 0.0301788 0.881272
434 1 0.943922 0.0971304 0.837524
44 2 0.918586 0.219821 0.968824
329 2 0.918586 0.280179 0.881272
471 1 0.943922 0.15287 0.75
476 2 0.918586 0.219821 0.718824
34 2 0.764572 0.0855963 0.793776
316 1 0.862157 0 0.675048
319 2 0.816843 0.0554174 0.706224
320 2 0.668586 0.0301788 0.881272
460 1 0.862157 0 0.925048
461 1 0.693922 0.0971304 0.837524
463 2 0.816843 0.0554174 0.956224
71 2 0.668586 0.219821 0.968824
72 2 0.816843 0.194583 0.8813
352 1 0.862157 0.25 0.675048
355 2 0.816843 0.305417 0.706224
356 2 0.668586 0.280179 0.881272
357 2 0.764572 0.164404 0.793748
496 1 0.862157 0.25 0.925048
498 1 0.693922 0.15287 0.75
499 2 0.816843 0.305417 0.956224
503 2 0.668586 0.219821 0.718824
43 2 0.0145715 0.335596 0.793776
79 2 0.0145715 0.585596 0.793776
81 2 0.0668428 0.444583 0.8813
361 1 0.112157 0.5 0.675048
364 2 0.0668428 0.555417 0.706224
366 2 0.0145715 0.414404 0.793748
505 1 0.112157 0.5 0.925048
508 2 0.0668428 0.555417 0.956224
402 2 0.0145715 0.664404 0.793748
52 2 0.264572 0.335596 0.793776
479 1 0.193922 0.34713 0.837524
88 2 0.264572 0.585596 0.793776
89 2 0.168586 0.469821 0.968824
90 2 0.316843 0.444583 0.8813
373 2 0.316843 0.555417 0.706224
374 2 0.168586 0.530179 0.881272
375 2 0.264572 0.414404 0.793748
515 1 0.193922 0.59713 0.837524
516 1 0.193922 0.40287 0.75
517 2 0.316843 0.555417 0.956224
521 2 0.168586 0.469821 0.718824
411 2 0.264572 0.664404 0.793748
552 1 0.193922 0.65287 0.75
370 1 0.362157 0.5 0.675048
514 1 0.362157 0.5 0.925048
61 2 0.514572 0.335596 0.793776
488 1 0.443922 0.34713 0.837524
97 2 0.514572 0.585596 0.793776
98 2 0.418586 0.469821 0.968824
99 2 0.566843 0.444583 0.8813
379 1 0.612157 0.5 0.675048
382 2 0.566843 0.555417 0.706224
383 2 0.418586 0.530179 0.881272
384 2 0.514572 0.414404 0.793748
523 1 0.612157 0.5 0.925048
524 1 0.443922 0.59713 0.837524
525 1 0.443922 0.40287 0.75
526 2 0.566843 0.555417 0.956224
530 2 0.418586 0.469821 0.718824
420 2 0.514572 0.664404 0.793748
561 1 0.443922 0.65287 0.75
470 1 0.943922 0.34713 0.837524
80 2 0.918586 0.469821 0.968824
365 2 0.918586 0.530179 0.881272
506 1 0.943922 0.59713 0.837524
507 1 0.943922 0.40287 0.75
512 2 0.918586 0.469821 0.718824
543 1 0.943922 0.65287 0.75
70 2 0.764572 0.335596 0.793776
497 1 0.693922 0.34713 0.837524
106 2 0.764572 0.585596 0.793776
107 2 0.668586 0.469821 0.968824
108 2 0.816843 0.444583 0.8813
388 1 0.862157 0.5 0.675048
391 2 0.816843 0.555417 0.706224
392 2 0.668586 0.530179 0.881272
393 2 0.764572 0.414404 0.793748
532 1 0.862157 0.5 0.925048
533 1 0.693922 0.59713 0.837524
534 1 0.693922 0.40287 0.75
535 2 0.816843 0.555417 0.956224
539 2 0.668586 0.469821 0.718824
429 2 0.764572 0.664404 0.793748
570 1 0.693922 0.65287 0.75
9 2 0.0668428 0.944583 0.8813
294 2 0.0145715 0.914404 0.793748
115 2 0.0145715 0.835596 0.793776
117 2 0.0668428 0.694583 0.8813
397 1 0.112157 0.75 0.675048
400 2 0.0668428 0.805417 0.706224
541 1 0.112157 0.75 0.925048
544 2 0.0668428 0.805417 0.956224
17 2 0.168586 0.969821 0.968824
18 2 0.316843 0.944583 0.8813
303 2 0.264572 0.914404 0.793748
444 1 0.193922 0.90287 0.75
449 2 0.168586 0.969821 0.718824
124 2 0.264572 0.835596 0.793776
125 2 0.168586 0.719821 0.968824
126 2 0.316843 0.694583 0.8813
409 2 0.316843 0.805417 0.706224
410 2 0.168586 0.780179 0.881272
551 1 0.193922 0.84713 0.837524
553 2 0.316843 0.805417 0.956224
557 2 0.168586 0.719821 0.718824
406 1 0.362157 0.75 0.675048
550 1 0.362157 0.75 0.925048
26 2 0.418586 0.969821 0.968824
27 2 0.566843 0.944583 0.8813
312 2 0.514572 0.914404 0.793748
453 1 0.443922 0.90287 0.75
458 2 0.418586 0.969821 0.718824
133 2 0.514572 0.835596 0.793776
134 2 0.418586 0.719821 0.968824
135 2 0.566843 0.694583 0.8813
415 1 0.612157 0.75 0.675048
418 2 0.566843 0.805417 0.706224
419 2 0.418586 0.780179 0.881272
559 1 0.612157 0.75 0.925048
560 1 0.443922 0.84713 0.837524
562 2 0.566843 0.805417 0.956224
566 2 0.418586 0.719821 0.718824
8 2 0.918586 0.969821 0.968824
435 1 0.943922 0.90287 0.75
440 2 0.918586 0.969821 0.718824
116 2 0.918586 0.719821 0.968824
401 2 0.918586 0.780179 0.881272
542 1 0.943922 0.84713 0.837524
548 2 0.918586 0.719821 0.718824
35 2 0.668586 0.969821 0.968824
36 2 0.816843 0.944583 0.8813
321 2 0.764572 0.914404 0.793748
462 1 0.693922 0.90287 0.75
467 2 0.668586 0.969821 0.718824
142 2 0.764572 0.835596 0.793776
143 2 0.668586 0.719821 0.968824
144 2 0.816843 0.694583 0.8813
424 1 0.862157 0.75 0.675048
427 2 0.816843 0.805417 0.706224
428 2 0.668586 0.780179 0.881272
568 1 0.862157 0.75 0.925048
569 1 0.693922 0.84713 0.837524
571 2 0.816843 0.805417 0.956224
575 2 0.668586 0.719821 0.718824
ITEM: TIMESTEP
5000
ITEM: NUMBER OF ATOMS
576
ITEM: BOX BOUNDS pp pp pp
0.0000000000000000e+00 2.0585577711599999e+01
0.0000000000000000e+00 2.0585577711599999e+01
0.0000000000000000e+00 2.0585577711599999e+01
ITEM: ATOMS id type xs ys zs
51 2 0.256561 0.148728 0.21731
469 1 0.186417 0.976007 0.0982934
472 2 0.240256 0.0829814 0.100346
17 2 0.154362 0.213697 0.198189
341 2 0.0720083 0.00538282 0.266546
38 1 0.210768 0.106308 0.168166
87 2 0.12458 0.339378 0.331373
293 2 0.292411 0.992036 0.197871
208 1 0.169315 0.356412 0.271254
554 2 0.21506 0.145899 0.981722
146 1 0.211296 0.965556 0.227149
175 2 0.190731 0.936136 0.164747
3 1 0.16742 0.136835 0.0333831
438 2 0.0126643 0.146875 0.271819
434 1 0.937864 0.157653 0.260432
6 2 0.109523 0.966178 0.0589485
447 2 0.13894 0.324295 0.533186
295 2 0.915839 0.166323 0.335651
345 1 0.0801591 0.289701 0.36036
18 2 0.476587 0.195897 0.0492665
557 2 0.185918 0.0458364 0.208017
58 2 0.326758 0.253 0.29761
372 1 0.254138 0.224342 0.263198
15 2 0.353385 0.125979 0.292924
169 2 0.467288 0.120393 0.358683
491 2 0.430407 0.319008 0.236486
55 1 0.481794 0.184832 0.119094
24 2 0.420038 0.144625 0.152811
494 2 0.604992 0.424546 0.144158
314 2 0.470811 0.249649 0.328133
355 2 0.548852 0.127793 0.136572
178 2 0.796357 0.261638 0.063616
13 2 0.328207 0.337311 0.992436
455 2 0.674177 0.0676239 0.170647
132 2 0.658244 0.216224 0.98779
46 1 0.535743 0.425658 0.119135
428 2 0.66973 0.323957 0.837862
137 1 0.608057 0.0801395 0.137053
423 2 0.599357 0.192692 0.250347
510 2 0.950787 0.302268 0.959626
224 2 0.5137 0.24405 0.164436
214 2 0.5944 0.536982 0.248693
218 1 0.744579 0.500769 0.188047
437 2 0.908398 0.0765055 0.224348
259 2 0.770166 0.276857 0.183547
338 2 0.66232 0.944726 0.170305
30 1 0.747176 0.227305 0.135022
375 2 0.804065 0.51982 0.227053
65 1 0.888871 0.293169 0.905895
490 2 0.749944 0.15194 0.136449
460 1 0.829116 0.283456 0.241655
81 2 0.048314 0.912002 0.96936
562 2 0.819549 0.357639 0.989283
96 2 0.758489 0.462402 0.114969
27 2 0.848156 0.945724 0.013965
435 1 0.940796 0.0620337 0.115895
266 2 0.792587 0.0550855 0.197445
198 2 0.238105 0.306393 0.080221
159 2 0.0594224 0.481926 0.151265
182 1 0.172539 0.319244 0.0634501
42 2 0.129966 0.324657 0.208771
276 2 0.956369 0.548741 0.225493
111 1 0.34446 0.472549 0.0732307
369 2 0.421336 0.397893 0.900605
508 2 0.0859691 0.803227 0.0799631
10 1 0.0828753 0.640948 0.380326
195 2 0.927154 0.515446 0.438878
505 1 0.861875 0.547476 0.407986
105 2 0.114369 0.456749 0.274536
56 1 0.105776 0.512465 0.312767
484 2 0.431171 0.377192 0.0867733
265 2 0.430502 0.556413 0.263039
191 1 0.249412 0.650195 0.172206
413 2 0.269745 0.729207 0.197559
422 2 0.284333 0.599692 0.214073
80 2 0.349928 0.460747 0.993077
205 2 0.60772 0.352686 0.273461
48 1 0.447593 0.191504 0.980647
49 2 0.359292 0.299285 0.127863
235 1 0.313002 0.341829 0.0786001
555 2 0.286433 0.445635 0.881592
153 2 0.316521 0.414524 0.108313
189 2 0.530396 0.608484 0.31915
209 1 0.515198 0.547407 0.264342
378 2 0.406057 0.515968 0.123851
83 1 0.723618 0.656666 0.132191
274 2 0.644202 0.67709 0.158457
134 2 0.493651 0.606769 0.0917791
255 1 0.471612 0.532049 0.094077
158 2 0.494636 0.396809 0.185377
140 2 0.283639 0.501375 0.312318
95 2 0.534929 0.758885 0.293092
200 1 0.440621 0.327652 0.148579
226 1 0.563241 0.679096 0.268423
207 2 0.531805 0.502629 0.1313
98 2 0.648439 0.684545 0.290975
474 2 0.855692 0.505244 0.0701781
151 2 0.894391 0.32974 0.2709
219 1 0.562439 0.432463 0.340716
245 1 0.965044 0.319048 0.273205
39 1 0.130548 0.632944 0.0991338
387 2 0.17231 0.636311 0.166014
90 2 0.760442 0.663191 0.371996
360 2 0.714511 0.44151 0.212517
183 1 0.626386 0.403086 0.223102
45 2 0.897374 0.398076 0.0589378
237 1 0.700516 0.642726 0.325021
75 1 0.839806 0.572156 0.276244
107 2 0.858105 0.583802 0.345421
186 2 0.702924 0.280017 0.406943
138 1 0.996197 0.491204 0.184088
108 2 0.972971 0.41404 0.219307
116 2 0.0402552 0.648758 0.45587
421 2 0.814183 0.611152 0.930526
282 1 0.824403 0.430292 0.057749
78 2 0.711876 0.563861 0.168113
329 2 0.790959 0.472552 0.971216
504 2 0.0023873 0.390727 0.0644901
352 1 0.954478 0.34052 0.0305027
297 2 0.364465 0.906242 0.198904
32 2 0.316887 0.879889 0.980469
252 2 0.778911 0.277106 0.297933
482 2 0.228828 0.803712 0.8983
376 2 0.388552 0.706945 0.0496622
73 1 0.442811 0.764209 0.0724537
518 2 0.176348 0.819736 0.216159
119 1 0.244641 0.801611 0.19277
8 2 0.50444 0.726561 0.114179
386 2 0.26222 0.610207 0.100253
223 2 0.205506 0.882501 0.978581
542 1 0.995412 0.870096 0.160929
523 1 0.958352 0.635494 0.0806655
567 2 0.0581041 0.608184 0.106772
333 2 0.998838 0.960831 0.357165
278 2 0.920073 0.621463 0.146141
336 1 0.995693 0.696959 0.250436
156 1 0.166135 0.913104 0.370642
448 2 0.221513 0.766573 0.341633
446 2 0.939346 0.810653 0.163076
261 2 0.0624641 0.876591 0.210495
443 1 0.292239 0.841698 0.0454711
9 2 0.247345 0.970699 0.0701404
43 2 0.469092 0.992209 0.0582497
1 1 0.362736 0.976103 0.225451
170 2 0.429426 0.802633 0.233105
44 2 0.636628 0.0438234 0.282298
271 1 0.51609 0.929119 0.361567
535 2 0.633632 0.76278 0.947975
21 1 0.481554 0.990385 0.156744
115 2 0.47555 0.908978 0.427169
273 1 0.467146 0.791225 0.305004
118 1 0.544016 0.739518 0.96984
251 2 0.497613 0.798309 7.99003e-05
85 2 0.593302 0.849839 0.169746
171 2 0.720132 0.832866 0.205621
163 1 0.690867 0.000560598 0.205724
564 2 0.483835 0.866489 0.308297
514 1 0.538981 0.66158 0.114719
402 2 0.52246 0.665125 0.191939
130 2 0.579741 0.927213 0.407481
242 2 0.97324 0.946008 0.206891
377 2 0.849598 0.842074 0.252801
228 1 0.889568 0.785052 0.304129
509 2 0.488959 0.989541 0.339369
286 2 0.772712 0.656877 0.076576
136 1 0.822621 0.68946 0.0195074
315 2 0.800801 0.738694 0.220438
545 2 0.769435 0.7415 0.974293
74 1 0.793142 0.810575 0.19609
102 1 0.0714046 0.407241 0.108251
77 2 0.933194 0.714011 0.285472
2 1 0.0268414 0.949358 0.0449891
174 1 0.78805 0.898201 0.297957
572 2 0.820319 0.928017 0.173705
463 2 0.728442 0.991019 0.0789554
100 1 0.00260853 0.974171 0.280394
268 2 0.0102489 0.891991 0.0934226
147 1 0.663003 0.871712 0.171374
546 2 0.801612 0.883472 0.371917
568 1 0.78302 0.906331 0.0946989
123 2 0.812911 0.0439999 0.343288
392 2 0.871171 0.536387 0.840254
143 2 0.950838 0.582159 0.0218017
283 2 0.743358 0.847176 0.0699096
23 2 0.174338 0.44573 0.491666
4 2 0.219419 0.93383 0.314247
296 2 0.0798036 0.58913 0.327769
37 1 0.191827 0.366925 0.505484
332 2 0.251656 0.28647 0.747514
94 2 0.145277 0.0912626 0.304621
161 2 0.766496 0.500026 0.35876
326 1 0.0688835 0.299072 0.506528
165 1 0.189366 0.0662234 0.586377
337 2 0.342065 0.146805 0.410716
263 1 0.0774852 0.1219 0.306209
558 2 0.0339318 0.0712831 0.362987
204 2 0.932125 0.269328 0.435041
213 2 0.0389991 0.30732 0.442306
525 1 0.952507 0.353195 0.429071
225 2 0.0943527 0.215719 0.339428
371 1 0.0975526 0.352637 0.62994
249 2 0.282483 0.230721 0.455975
381 1 0.292006 0.427115 0.339746
406 1 0.161315 0.0174462 0.71126
403 2 0.213306 0.0358013 0.657679
382 2 0.158868 0.141402 0.616561
492 2 0.260647 0.15319 0.747644
565 2 0.20609 0.137641 0.859285
190 1 0.415449 0.28475 0.30366
192 1 0.493828 0.190678 0.391745
527 2 0.574229 0.240606 0.405625
416 1 0.544078 0.918806 0.6117
358 2 0.418088 0.0335585 0.450764
199 1 0.578071 0.311805 0.431272
359 2 0.574047 0.10574 0.691221
267 2 0.42881 0.993031 0.545292
457 2 0.488289 0.18862 0.475651
485 2 0.682229 0.0368435 0.605053
164 1 0.497032 0.201375 0.591239
385 2 0.359156 0.387554 0.359906
308 1 0.704822 0.973858 0.571466
54 2 0.345533 0.937547 0.632191
310 2 0.715907 0.90661 0.626322
193 2 0.244075 0.211454 0.343172
439 2 0.654946 0.0179066 0.45798
194 2 0.44198 0.250174 0.550191
335 1 0.270332 0.178223 0.408823
210 1 0.577886 0.248943 0.200954
5 2 0.8004 0.220271 0.462401
324 2 0.555163 0.230414 0.622952
59 2 0.598167 0.379937 0.402264
475 2 0.88524 0.232214 0.547681
181 1 0.718316 0.220149 0.689747
124 2 0.976159 0.122977 0.497604
227 1 0.854846 0.264519 0.44262
211 2 0.961519 0.127263 0.616466
473 2 0.836885 0.946868 0.288698
154 1 0.827077 0.0384295 0.269089
516 1 0.975433 0.171343 0.556505
304 2 0.789008 0.166892 0.347515
343 1 0.650342 0.0934724 0.433782
351 2 0.639071 0.143946 0.512556
203 2 0.769607 0.0029209 0.550047
498 1 0.826364 0.0583204 0.54355
388 1 0.748612 0.243162 0.353294
152 2 0.06761 0.992098 0.62803
459 2 0.823548 0.331107 0.450242
465 2 0.756989 0.33202 0.588445
512 2 0.746289 0.284788 0.716707
291 1 0.795086 0.126997 0.417203
529 2 0.822775 0.0864186 0.616222
188 2 0.627132 0.299238 0.164362
354 1 0.0384298 0.958823 0.560949
344 1 0.635462 0.226645 0.56877
420 2 0.56707 0.298922 0.717873
454 2 0.0308306 0.351041 0.585774
197 2 0.0156748 0.295804 0.3189
449 2 0.0959827 0.542289 0.50436
229 2 0.321916 0.745619 0.38746
488 1 0.192364 0.427726 0.705281
530 2 0.136156 0.406552 0.657017
511 2 0.055497 0.436136 0.423846
513 2 0.0413381 0.221971 0.521257
543 1 0.11837 0.490735 0.455731
506 1 0.209314 0.708292 0.380896
414 2 0.221632 0.417222 0.229679
395 2 0.255007 0.338456 0.52471
238 2 0.267624 0.4143 0.664704
396 2 0.915825 0.434892 0.362824
328 2 0.144203 0.680422 0.371026
135 2 0.264126 0.601659 0.56089
373 2 0.819728 0.558073 0.475603
570 1 0.0623278 0.28085 0.728737
453 1 0.345014 0.449113 0.69291
467 2 0.259468 0.611212 0.442241
127 1 0.319936 0.578605 0.281745
540 2 0.481914 0.341327 0.398419
233 2 0.447843 0.429207 0.495247
390 1 0.424807 0.357642 0.444092
533 1 0.550978 0.349607 0.664307
184 2 0.226457 0.397583 0.335322
573 2 0.141293 0.512804 0.380052
426 1 0.320168 0.289412 0.526511
247 2 0.407854 0.445062 0.620704
520 2 0.582921 0.651834 0.57327
380 1 0.433428 0.475131 0.551935
575 2 0.318892 0.502543 0.457379
394 2 0.355868 0.32156 0.461874
231 2 0.34946 0.647385 0.307788
417 1 0.373152 0.68508 0.368952
240 2 0.647972 0.223718 0.741114
353 1 0.553821 0.535796 0.516963
279 2 0.584895 0.521311 0.449835
391 2 0.541402 0.663148 0.680246
166 2 0.451012 0.686509 0.571566
270 2 0.138056 0.66371 0.524212
486 2 0.393085 0.618246 0.451261
425 1 0.305597 0.575535 0.486967
536 2 0.702947 0.512642 0.506916
477 2 0.754608 0.607751 0.275415
243 2 0.504691 0.472411 0.314419
340 2 0.840861 0.473637 0.562483
157 2 0.80689 0.71603 0.477167
47 1 0.783095 0.521489 0.531292
264 1 0.770284 0.730034 0.410406
50 2 0.944073 0.484993 0.604379
415 1 0.671638 0.541312 0.442059
260 2 0.66808 0.622027 0.484464
429 2 0.508715 0.640845 0.468393
560 1 0.655981 0.679039 0.545597
141 2 0.940761 0.408432 0.48871
139 2 0.668546 0.580459 0.357333
281 1 0.915287 0.440029 0.546885
33 2 0.884794 0.35289 0.566645
363 1 0.732619 0.620944 0.662808
322 2 0.569107 0.539384 0.59998
318 1 0.710668 0.379882 0.612503
393 2 0.647308 0.56332 0.682621
526 2 0.177493 0.0280891 0.519894
444 1 0.182565 0.00801486 0.446897
334 1 0.108144 0.822572 0.252901
368 2 0.931578 0.827263 0.382406
566 2 0.117611 0.882689 0.324879
556 2 0.128607 0.964933 0.419438
362 1 0.0133691 0.0100833 0.409865
522 2 0.231657 0.764663 0.494632
561 1 0.255905 0.817872 0.44283
220 2 0.192606 0.858452 0.416183
404 2 0.0785071 0.904093 0.538278
76 2 0.0583002 0.752649 0.252901
167 2 0.424997 0.0101492 0.204394
309 1 0.397843 0.121096 0.349368
502 2 0.0364763 0.829332 0.428954
450 2 0.0235748 0.613925 0.594762
239 2 0.215874 0.134507 0.47216
253 1 0.070371 0.613111 0.532835
493 2 0.0565605 0.760489 0.59233
462 1 0.193102 0.65965 0.573983
254 1 0.016189 0.615949 0.672139
496 1 0.594537 0.10537 0.286414
176 2 0.340679 0.985976 0.307413
401 2 0.554286 0.022864 0.170977
31 2 0.534606 0.0686103 0.500965
430 2 0.603783 0.119509 0.37322
121 2 0.438769 0.730565 0.367404
298 1 0.396038 0.930287 0.568376