ITEM: TIMESTEP
0
ITEM: NUMBER OF ATOMS
32
ITEM: BOX BOUNDS pp pp pp
0.0000000000000000e+00 1.7000000000000000e+01
0.0000000000000000e+00 1.7000000000000000e+01
0.0000000000000000e+00 1.7000000000000000e+01
ITEM: ATOMS id type x y z vx vy vz
1 1 0 0 0 -2.18654 1.97124 2.37669
2 1 4.25 4.25 0 -2.50532 -2.34535 -2.3288
3 1 4.25 0 4.25 1.32557 0.664034 2.20048
4 1 0 4.25 4.25 1.42011 -0.657439 -1.57325
5 1 8.5 0 0 -1.29125 1.75453 2.56659
6 1 12.75 4.25 0 -1.9122 -0.625949 -2.41827
7 1 12.75 0 4.25 -1.29645 -1.52724 1.93924
8 1 8.5 4.25 4.25 -1.596 2.40509 -1.34539
9 1 0 8.5 0 2.18882 2.50535 -0.988237
10 1 4.25 12.75 0 0.610745 0.281582 -1.55868
11 1 4.25 8.5 4.25 2.08589 -0.648762 2.55778
12 1 0 12.75 4.25 2.28937 2.47966 -2.32688
13 1 8.5 8.5 0 2.15133 2.2518 -0.726087
14 1 12.75 12.75 0 -2.13787 1.24196 0.464048
15 1 12.75 8.5 4.25 -1.4201 -1.47286 2.6344
16 1 8.5 12.75 4.25 -1.08117 0.378861 1.1265
17 1 0 0 8.5 0.479272 0.212 -0.6132
18 1 4.25 4.25 8.5 0.448302 -0.698182 1.20755
19 1 4.25 0 12.75 -2.03143 0.383029 -2.29764
20 1 0 4.25 12.75 0.281498 -1.49264 0.901456
21 1 8.5 0 8.5 2.25265 -0.647 0.679276
22 1 12.75 4.25 8.5 -0.270634 -1.89751 -1.85109
23 1 12.75 0 12.75 0.21371 -1.89376 -1.81178
24 1 8.5 4.25 12.75 -0.424546 -1.2036 -1.36486
25 1 0 8.5 8.5 0.323313 -2.00538 1.24235
26 1 4.25 12.75 8.5 0.369943 -0.319526 -1.09214
27 1 4.25 8.5 12.75 1.99622 -1.48678 -0.473913
28 1 0 12.75 12.75 0.64209 2.24824 2.54984
29 1 8.5 8.5 8.5 -0.0124993 1.3388 1.0327
30 1 12.75 12.75 8.5 -1.58557 -0.79196 -0.372062
31 1 12.75 8.5 12.75 1.45672 0.443994 -1.11073
32 1 8.5 12.75 12.75 -0.783957 -0.846228 0.774108
