ITEM: TIMESTEP
0
ITEM: NUMBER OF ATOMS
4
ITEM: BOX BOUNDS pp pp pp
0.0000000000000000e+00 8.5000000000000000e+00
0.0000000000000000e+00 8.5000000000000000e+00
0.0000000000000000e+00 8.5000000000000000e+00
ITEM: ATOMS id type x y z vx vy vz
1 1 0 0 0 -1.23719 1.50146 1.60683
2 1 4.25 4.25 0 -1.46919 -1.63999 -1.81765
3 1 4.25 0 4.25 1.31879 0.550124 1.4786
4 1 0 4.25 4.25 1.38759 -0.411594 -1.26778
