LAMMPS (2 Aug 2023)
# LAMMPS input script by Simon Gravelle
# This input is part of a tutorial from https://lammpstutorials.github.io
# Last tested using the 2Aug2023 stable LAMMPS version
# This file was released under the GNU general public license v3.0

# ⣿⣿⡆⠀⠀⠀⠀⠀⠀⣾⣿⣿⣆⠀⠀⠀⣿⣿⣿⣆⠀⠀⣰⣿⣿⣷⠀⢸⣿⣿⣷⡀⠀⢀⣾⣿⣿⠀⠀⣿⣿⣿⣿⣿⣷⣆⠀⢀⣶⣿⠿⠿⣿⡆⠀⠀⠀⠀⠀⠀⠀⠀⠀⢀⣀⣠⣤⣶⣿⣿⣿⣦⡄⠀⠀⠀⠀⠀⠀⠀
# ⣿⣿⡇⠀⠀⠀⠀⠀⣼⣿⡏⣿⣿⡄⠀⠀⣿⣿⡿⣿⡆⢰⣿⢿⣿⣿⠀⢸⣿⣿⢿⣧⠀⣾⡿⣿⣿⠀⠀⣿⣿⡇⠀⢈⣿⣿⠀⢸⣿⣧⣄⣀⡀⠀⠀⠀⠀⠀⠀⠀⢀⣤⣾⣿⣿⠏⣿⣿⣿⣿⣿⣿⣿⡄⠀⠀⠀⠀⠀⠀
# ⣿⣿⡇⠀⠀⠀⠀⢰⣿⣿⣀⣸⣿⣷⡀⠀⣿⣿⡇⢻⣿⣿⡏⢸⣿⣿⠀⢸⣿⣿⠘⣿⣿⡿⠁⣿⣿⠀⠀⣿⣿⡿⠿⠿⠿⠋⠀⠀⠉⠛⠻⠿⣿⣷⠀⠀⠀⠀⠀⢠⣿⣿⣿⣿⣿⡄⠻⣿⣿⣿⣿⡿⠟⣃⠀⠀⠀⠀⠀⠀
# ⣿⣿⣧⣤⣤⣤⢠⣿⣿⠛⠛⠛⢻⣿⣧⠀⣿⣿⡇⠀⠛⠛⠀⢸⣿⣿⠀⢸⣿⣿⠀⠘⠛⠃⠀⣿⣿⠀⠀⣿⣿⡇⠀⠀⠀⠀⠀⢰⣶⣤⣤⣤⣿⡿⠀⠀⠀⠀⠀⣻⣿⣿⣿⣿⣿⣿⣄⡀⠉⠉⠁⠀⢠⣿⡄⠀⠀⠀⠀⠀
# ⠉⠉⠉⠉⠉⠉⠈⠉⠁⠀⠀⠀⠀⠉⠉⠀⠉⠉⠁⠀⠀⠀⠀⠈⠉⠉⠀⠈⠉⠉⠀⠀⠀⠀⠀⠉⠉⠀⠀⠉⠉⠁⠀⠀⠀⠀⠀⠀⠉⠉⠉⠉⠉⠀⠀⠀⠀⠀⠀⣿⣿⣿⣿⣿⣿⣿⣿⣿⣷⣶⣶⣾⣿⣿⡇⠀⠀⠀⠀⠀
# ⢀⣤⠀⠀⠀⠀⠀⠀⠀⠀⠀⠀⣤⡀⠀⠀⠀⠀⠀⠀⠀⠀⠀⠀⠀⠀⠀⢰⣶⠀⠀⠀⠀⠀⠀⠀⠀⢰⡆⠀⠀⠀⠀⠀⠀⠀⠀⠀⠀⠀⠀⠀⠀⠀⠀⠀⠀⠀⠀⠘⣿⣿⣿⣿⣿⣿⣿⣿⣿⣿⣿⣿⣿⣿⡃⠀⠀⠀⠀⠀
# ⣼⣿⣴⡦⠀⣴⠀⠀⠀⣴⡄⢤⣿⣧⣶⠄⢀⣤⡶⣶⣄⠀⠀⣴⣤⣴⣦⢠⣦⠀⠀⣤⠶⢶⣤⡀⠀⢸⡇⠀⢠⣴⠶⢦⡄⠀⠀⠀⠀⠀⠀⠀⠀⠀⠀⠀⠀⠀⠀⢀⣼⣿⣿⣿⣿⣿⣿⣿⣿⣿⣿⣿⣿⣿⣿⣶⣄⠀⠀⠀
# ⢸⣿⠀⠀⠀⣿⠀⠀⠀⣿⡇⠀⣿⡆⠀⠀⣿⠇⠀⠀⢻⡇⠀⣿⡇⠀⠀⢸⣿⠀⠀⣠⣤⣤⣽⡇⠀⢸⡇⠀⢻⣧⣄⣀⠀⠀⠀⠀⠀⠀⠀⠀⠀⠀⠀⠀⣀⣀⣀⣾⣿⣿⣿⣿⣿⣿⣿⣿⣿⣿⣿⣿⣿⣿⣿⣿⣿⣧⡀⠀
# ⠸⣿⠀⠀⠀⣿⡄⠀⢀⣿⡇⠀⣿⡇⠀⠀⢿⣇⠀⢀⣼⡇⠀⣿⡇⠀⠀⢸⣿⠀⢸⣏⠀⠀⣼⡇⠀⢸⡇⠀⡀⠀⠉⢹⣷⠀⠀⠀⠀⠀⠀⠀⣀⣴⣾⣿⣿⡟⢸⣿⣿⣿⣿⣿⣿⣿⣿⣿⣿⣿⣿⣿⣿⣿⣿⣿⣿⣿⣷⠀
# ⠀⠙⠛⠛⠀⠈⠛⠛⠋⠛⠁⠀⠈⠛⠛⠃⠈⠛⠛⠛⠋⠀⠀⠛⠃⠀⠀⠘⠛⠀⠈⠛⠛⠛⠙⠃⠀⠘⠃⠀⠙⠛⠛⠛⠁⠀⠀⠀⠀⠀⢠⣾⣿⣿⣿⣿⣿⠀⣼⣿⣿⣿⣿⣿⣿⣿⣿⣿⣿⣿⣿⣿⣿⣿⣿⣿⣿⣿⣿⡇
# ⠀⠀⠀⠀⠀⠀⠀⠀⠀⠀⠀⠀⠀⠀⠀⠀⠀⠀⠀⠀⠀⠀⠀⠀⠀⠀⠀⠀⠀⠀⠀⠀⠀⠀⠀⠀⠀⠀⠀⠀⠀⠀⠀⠀⠀⠀⠀⠀⣠⣴⣿⣿⣿⣿⣿⣿⣿⡀⣿⣿⣿⣿⣿⣿⣿⣿⣿⣿⣿⣿⣿⣿⣿⣿⣿⣿⣿⣿⣿⣿
#⠀ ⠀⠀⠀⠀⠀⠀⠀⠀⠀⠀⠀⠀⠀⠀⠀⠀⠀⠀⠀⠀⠀⠀⠀⠀⠀⠀⠀⠀⠀⠀⠀⠀⠀⠀⠀⠀⠀⠀⠀⠀⠀⠀⠀⠀⠀⠀⢰⣿⣿⣿⣿⣿⣿⣿⣿⣿⡇⢻⣿⣿⣿⣿⣿⣿⣿⣿⣿⣿⣿⣿⣿⣿⣿⣿⣿⣿⣿⣿⡏
# ⠀⠀⠀⠀⠀⠀⠀⠀⠀⠀⠀⠀⠀⠀⠀⠀⠀⠀⠀⠀⠀⠀⠀⠀⠀⠀⠀⠀⠀⠀⠀⠀⠀⠀⠀⠀⠀⠀⠀⠀⠀⠀⠀⠀⠀⠀⠀⠸⣿⣿⣿⣿⣿⣿⣿⣿⣿⣿⡘⣿⣿⣿⣿⣿⡏⣼⣿⣿⣿⣿⣿⣿⣿⣿⣿⣿⣿⣿⣿⠁
# ⠀⠀⠀⠀⠀⠀⠀⠀⠀⠀⠀⠀⠀⠀⠀⠀⠀⠀⠀⠀⠀⠀⠀⠀⠀⠀⠀⠀⠀⠀⠀⠀⠀⠀⠀⠀⠀⠀⠀⠀⠀⠀⠀⠀⠀⠀⠀⠀⠨⣿⣿⣿⣿⣿⣿⣿⣿⣿⣷⡈⠻⣿⣿⣿⣇⠸⣿⣿⣿⣿⣿⣿⡿⢻⣿⣿⠿⠋⠁⠀
# ⠀⠀⠀⠀⠀⠀⠀⠀⠀⠀⠀⠀⠀⠀⠀⠀⠀⠀⠀⠀⠀⠀⠀⠀⠀⠀⠀⠀⠀⠀⠀⠀⠀⠀⠀⠀⠀⠀⠀⠀⠀⠀⠀⠀⠀⠀⠀⠀⠀⢻⣿⣿⣿⣿⣿⣿⣿⣿⣿⣷⡀⠈⠻⢿⣿⣦⣈⠙⠛⠛⠛⣁⣴⡿⠛⠁⠀⠀⠀⠀
# ⠀⠀⠀⠀⠀⠀⠀⠀⠀⠀⠀⠀⠀⠀⠀⠀⠀⠀⠀⠀⠀⠀⠀⠀⠀⠀⠀⠀⠀⠀⠀⠀⠀⠀⠀⠀⠀⠀⠀⠀⠀⠀⠀⠀⠀⠀⠀⠀⠀⠀⠻⣿⣿⣿⣿⣿⣿⣿⣿⣿⣿⣦⡀⠀⠈⠉⠛⠛⠓⠚⠋⠉⠁⠀⠀⠀⠀⠀⠀⠀
# ⠀⠀⠀⠀⠀⠀⠀⠀⠀⠀⠀⠀⠀⠀⠀⠀⠀⠀⠀⠀⠀⠀⠀⠀⠀⠀⠀⠀⠀⠀⠀⠀⠀⠀⠀⠀⠀⠀⠀⠀⠀⠀⠀⠀⠀⠀⠀⠀⠀⠀⠀⠀⠙⠻⠿⣿⣿⣿⣿⡿⠟⠋⠀

variable T equal 300

units metal
atom_style atomic
boundary p p p
pair_style airebo 2.5 1 1

read_data cnt_atom.data
Reading data file ...
  orthogonal box = (-40 -40 -12.130411) to (40 40 67.869589)
  1 by 1 by 1 MPI processor grid
  reading atoms ...
  700 atoms
  read_data CPU = 0.001 seconds
pair_coeff * * CH.airebo C
Reading airebo potential file CH.airebo with DATE: 2011-10-25

change_box all x final -40 40 y final -40 40 z final -60 60
Changing box ...
  orthogonal box = (-40 -40 -12.130411) to (40 40 67.869589)
  orthogonal box = (-40 -40 -12.130411) to (40 40 67.869589)
  orthogonal box = (-40 -40 -60) to (40 40 60)

group carbon_atoms type 1
700 atoms in group carbon_atoms
variable carbon_xcm equal -1*xcm(carbon_atoms,x)
variable carbon_ycm equal -1*xcm(carbon_atoms,y)
variable carbon_zcm equal -1*xcm(carbon_atoms,z)
displace_atoms carbon_atoms move ${carbon_xcm} ${carbon_ycm} ${carbon_zcm}
displace_atoms carbon_atoms move 8.63582707317374e-18 ${carbon_ycm} ${carbon_zcm}
displace_atoms carbon_atoms move 8.63582707317374e-18 5.44011733255672e-16 ${carbon_zcm}
displace_atoms carbon_atoms move 8.63582707317374e-18 5.44011733255672e-16 -27.869588464286
Displacing atoms ...

variable zmax equal bound(carbon_atoms,zmax)-0.5
variable zmin equal bound(carbon_atoms,zmin)+0.5
region rtop block INF INF INF INF ${zmax} INF
region rtop block INF INF INF INF 27.369589535714 INF
region rbot block INF INF INF INF INF ${zmin}
region rbot block INF INF INF INF INF -27.369588464286
region rmid block INF INF INF INF ${zmin} ${zmax}
region rmid block INF INF INF INF -27.369588464286 ${zmax}
region rmid block INF INF INF INF -27.369588464286 27.369589535714
group carbon_top region rtop
10 atoms in group carbon_top
group carbon_bot region rbot
10 atoms in group carbon_bot
group carbon_mid region rmid
680 atoms in group carbon_mid

velocity carbon_mid create ${T} 48455 mom yes rot yes
velocity carbon_mid create 300 48455 mom yes rot yes
fix mynve all nve
compute Tmid carbon_mid temp
fix myber carbon_mid temp/berendsen ${T} ${T} 0.1
fix myber carbon_mid temp/berendsen 300 ${T} 0.1
fix myber carbon_mid temp/berendsen 300 300 0.1
fix_modify myber temp Tmid

fix mysf1 carbon_bot setforce 0 0 0
fix mysf2 carbon_top setforce 0 0 0
velocity carbon_bot set 0 0 0
velocity carbon_top set 0 0 0

variable L equal xcm(carbon_top,z)-xcm(carbon_bot,z)
fix at1 all ave/time 10 10 100 v_L file output_cnt_length.dat
fix at2 all ave/time 10 10 100 f_mysf1[1] f_mysf2[1] file output_edge_force.dat
dump mydmp all atom 1000 dump.lammpstrj

thermo 100
thermo_modify temp Tmid
WARNING: Temperature for thermo pressure is not for group all (src/thermo.cpp:527)

timestep 0.0005
run 5000
Neighbor list info ...
  update: every = 1 steps, delay = 0 steps, check = yes
  max neighbors/atom: 2000, page size: 100000
  master list distance cutoff = 10.5
  ghost atom cutoff = 10.5
  binsize = 5.25, bins = 16 16 23
  1 neighbor lists, perpetual/occasional/extra = 1 0 0
  (1) pair airebo, perpetual
      attributes: full, newton on, ghost
      pair build: full/bin/ghost
      stencil: full/ghost/bin/3d
      bin: standard
Per MPI rank memory allocation (min/avg/max) = 4.309 | 4.309 | 4.309 Mbytes
   Step          Temp          E_pair         E_mol          TotEng         Press     
         0   300           -5084.7276      0             -5058.3973     -710.48531    
       100   236.01839     -5074.8799      0             -5054.1651     -65.134772    
       200   236.84387     -5071.3509      0             -5050.5637     -208.68892    
       300   218.89945     -5066.9285      0             -5047.7162     -700.426      
       400   266.70836     -5069.2974      0             -5045.8891     -85.169148    
       500   274.10167     -5068.2556      0             -5044.1983     -176.45117    
       600   264.52244     -5066.1143      0             -5042.8978     -712.84728    
       700   288.90994     -5067.3137      0             -5041.9567     -139.40207    
       800   292.52427     -5066.8493      0             -5041.1751     -135.59361    
       900   281.89125     -5065.1962      0             -5040.4553     -665.16787    
      1000   311.34265     -5067.6336      0             -5040.3078     -189.9521     
      1100   298.50951     -5065.946       0             -5039.7465     -96.517766    
      1200   274.56458     -5063.4858      0             -5039.3879     -621.18068    
      1300   301.57891     -5065.8739      0             -5039.405      -261.85903    
      1400   303.65663     -5065.7595      0             -5039.1083     -66.488297    
      1500   303.6148      -5065.6203      0             -5038.9728     -579.8579     
      1600   302.0696      -5065.5309      0             -5039.0189     -319.3933     
      1700   297.639       -5064.9837      0             -5038.8606     -70.327866    
      1800   290.47037     -5064.1743      0             -5038.6804     -541.89671    
      1900   313.90283     -5066.2286      0             -5038.6781     -374.74932    
      2000   290.96301     -5064.0969      0             -5038.5598     -71.779283    
      2100   302.42461     -5065.0849      0             -5038.5418     -476.01916    
      2200   301.66765     -5065.1389      0             -5038.6623     -415.36176    
      2300   293.66059     -5064.5013      0             -5038.7274     -118.60872    
      2400   306.7651      -5065.4273      0             -5038.5033     -404.33699    
      2500   290.06003     -5064.1226      0             -5038.6647     -482.59389    
      2600   286.91656     -5063.96        0             -5038.7781     -150.35872    
      2700   303.1018      -5064.8634      0             -5038.2609     -319.02272    
      2800   294.51496     -5064.335       0             -5038.4861     -475.6755     
      2900   291.78556     -5064.2998      0             -5038.6905     -230.25623    
      3000   291.96289     -5064.1396      0             -5038.5147     -256.14571    
      3100   304.83136     -5065.2397      0             -5038.4854     -484.51117    
      3200   307.70178     -5065.6952      0             -5038.689      -277.33245    
      3300   306.71673     -5065.4352      0             -5038.5154     -184.12496    
      3400   315.30634     -5066.2368      0             -5038.5631     -475.72085    
      3500   296.85827     -5064.644       0             -5038.5895     -339.3003     
      3600   306.28395     -5065.421       0             -5038.5392     -157.49295    
      3700   299.66952     -5064.8964      0             -5038.5951     -478.49258    
      3800   305.95416     -5065.4331      0             -5038.5802     -367.25073    
      3900   301.45385     -5065.0977      0             -5038.6399     -144.95442    
      4000   302.37353     -5064.9612      0             -5038.4226     -442.04373    
      4100   300.15269     -5064.9215      0             -5038.5778     -386.21271    
      4200   298.19114     -5064.8932      0             -5038.7216     -200.56517    
      4300   291.63652     -5063.9966      0             -5038.4003     -387.24922    
      4400   292.7151      -5064.3048      0             -5038.6139     -399.24565    
      4500   322.51562     -5067.0037      0             -5038.6972     -242.55192    
      4600   290.94049     -5063.9933      0             -5038.4582     -333.23816    
      4700   303.11297     -5065.1126      0             -5038.5091     -363.13476    
      4800   297.78124     -5064.7932      0             -5038.6576     -312.94416    
      4900   291.23483     -5063.9936      0             -5038.4326     -290.81368    
      5000   305.20761     -5065.3893      0             -5038.6019     -356.16376    
Loop time of 13.3267 on 1 procs for 5000 steps with 700 atoms

Performance: 16.208 ns/day, 1.481 hours/ns, 375.186 timesteps/s, 262.630 katom-step/s
99.4% CPU use with 1 MPI tasks x no OpenMP threads

MPI task timing breakdown:
Section |  min time  |  avg time  |  max time  |%varavg| %total
---------------------------------------------------------------
Pair    | 13.27      | 13.27      | 13.27      |   0.0 | 99.57
Neigh   | 0          | 0          | 0          |   0.0 |  0.00
Comm    | 0.0014036  | 0.0014036  | 0.0014036  |   0.0 |  0.01
Output  | 0.0025084  | 0.0025084  | 0.0025084  |   0.0 |  0.02
Modify  | 0.044075   | 0.044075   | 0.044075   |   0.0 |  0.33
Other   |            | 0.009177   |            |       |  0.07

Nlocal:            700 ave         700 max         700 min
Histogram: 1 0 0 0 0 0 0 0 0 0
Nghost:              0 ave           0 max           0 min
Histogram: 1 0 0 0 0 0 0 0 0 0
Neighs:              0 ave           0 max           0 min
Histogram: 1 0 0 0 0 0 0 0 0 0
FullNghs:       109830 ave      109830 max      109830 min
Histogram: 1 0 0 0 0 0 0 0 0 0

Total # of neighbors = 109830
Ave neighs/atom = 156.9
Neighbor list builds = 0
Dangerous builds = 0

# 0.15 A/ps = 15 m/s
velocity carbon_top set 0 0 0.15
run 280000
Per MPI rank memory allocation (min/avg/max) = 5.336 | 5.336 | 5.336 Mbytes
   Step          Temp          E_pair         E_mol          TotEng         Press     
      5000   305.20761     -5065.3893      0             -5038.6019     -356.16376    
      5100   299.32695     -5064.8849      0             -5038.6137     -369.92398    
      5200   295.16313     -5064.2837      0             -5038.378      -268.06709    
      5300   317.76237     -5066.204       0             -5038.3147     -335.5878     
      5400   301.43507     -5064.858       0             -5038.4018     -409.26447    
      5500   290.64882     -5063.7343      0             -5038.2247     -278.29285    
      5600   300.0902      -5064.5526      0             -5038.2144     -305.86606    
      5700   312.60194     -5065.4287      0             -5037.9924     -441.58122    
      5800   286.04207     -5063.2952      0             -5038.19       -299.14153    
      5900   301.81943     -5064.4959      0             -5038.0059     -302.9816     
      6000   299.96394     -5064.1706      0             -5037.8435     -444.04501    
      6100   293.84423     -5063.6863      0             -5037.8963     -338.47749    
      6200   303.05084     -5064.2568      0             -5037.6587     -288.45842    
      6300   291.81085     -5063.2713      0             -5037.6598     -464.27602    
      6400   298.93078     -5063.8986      0             -5037.6621     -352.52926    
      6500   307.93486     -5064.5794      0             -5037.5527     -304.42223    
      6600   304.26194     -5064.1158      0             -5037.4115     -442.01481    
      6700   298.78182     -5063.6497      0             -5037.4263     -397.79619    
      6800   293.72716     -5063.0864      0             -5037.3067     -315.03345    
      6900   295.73706     -5063.1953      0             -5037.2391     -439.16595    
      7000   301.18229     -5063.6472      0             -5037.2131     -406.22023    
      7100   303.06122     -5063.7553      0             -5037.1563     -358.94594    
      7200   302.70619     -5063.4978      0             -5036.93       -391.58316    
      7300   311.69838     -5064.3143      0             -5036.9573     -433.79183    
      7400   300.95298     -5063.3569      0             -5036.943      -399.33271    
      7500   299.48495     -5062.9018      0             -5036.6167     -350.11398    
      7600   298.20682     -5062.8775      0             -5036.7046     -443.49877    
      7700   294.45716     -5062.5671      0             -5036.7233     -454.37696    
      7800   305.67778     -5063.3547      0             -5036.526      -302.50583    
      7900   298.26998     -5062.6873      0             -5036.5088     -487.68508    
      8000   300.31418     -5062.9215      0             -5036.5636     -491.15448    
      8100   309.07273     -5063.3844      0             -5036.2578     -271.61323    
      8200   301.36379     -5062.7         0             -5036.25       -496.36254    
      8300   298.56985     -5062.4458      0             -5036.241      -507.41425    
      8400   299.22408     -5062.2843      0             -5036.0222     -300.04759    
      8500   302.97484     -5062.6051      0             -5036.0137     -473.70247    
      8600   301.13337     -5062.3172      0             -5035.8874     -526.973      
      8700   297.5853      -5061.9177      0             -5035.7993     -305.55637    
      8800   302.46451     -5062.2928      0             -5035.7462     -496.69194    
      8900   296.99588     -5061.6847      0             -5035.6181     -532.72569    
      9000   307.99371     -5062.7112      0             -5035.6793     -329.70948    
      9100   299.30886     -5061.7847      0             -5035.515      -478.08941    
      9200   304.42021     -5062.0481      0             -5035.3298     -549.79879    
      9300   301.03364     -5061.7361      0             -5035.3151     -360.20841    
      9400   300.11958     -5061.5001      0             -5035.1593     -491.94029    
      9500   297.55628     -5061.2644      0             -5035.1486     -561.21176    
      9600   289.21047     -5060.4281      0             -5035.0448     -391.46078    
      9700   300.59851     -5061.2332      0             -5034.8503     -463.2273     
      9800   295.98013     -5060.791       0             -5034.8135     -605.57389    
      9900   301.66886     -5061.315       0             -5034.8382     -405.72603    
     10000   291.55321     -5060.2374      0             -5034.6484     -435.63277    
     10100   299.55162     -5060.835       0             -5034.544      -606.45769    
     10200   296.46081     -5060.5238      0             -5034.5041     -437.85078    
     10300   293.58752     -5060.0848      0             -5034.3173     -421.29599    
     10400   294.18425     -5060.068       0             -5034.2481     -616.45229    
     10500   304.76652     -5061.0139      0             -5034.2653     -458.95292    
     10600   300.96367     -5060.6377      0             -5034.2229     -408.24104    
     10700   297.66775     -5060.0898      0             -5033.9643     -619.46285    
     10800   303.84552     -5060.6161      0             -5033.9482     -485.56482    
     10900   297.66488     -5060.0545      0             -5033.9292     -420.96131    
     11000   300.97866     -5060.1823      0             -5033.7661     -631.22253    
     11100   305.82639     -5060.4613      0             -5033.6197     -498.03546    
     11200   284.57177     -5058.5182      0             -5033.542      -441.05929    
     11300   301.07162     -5059.7605      0             -5033.3362     -617.37015    
     11400   311.24671     -5060.6603      0             -5033.3429     -512.37642    
     11500   298.7775      -5059.536       0             -5033.3131     -456.69601    
     11600   294.43028     -5058.8724      0             -5033.0309     -585.10603    
     11700   305.11748     -5059.7636      0             -5032.9842     -519.05176    
     11800   299.7856      -5059.2902      0             -5032.9787     -512.16178    
     11900   301.15383     -5059.174       0             -5032.7425     -554.18351    
     12000   293.28853     -5058.4869      0             -5032.7457     -566.40175    
     12100   286.57141     -5057.7674      0             -5032.6157     -525.96011    
     12200   306.08283     -5059.2894      0             -5032.4252     -520.26364    
     12300   304.65967     -5059.1229      0             -5032.3836     -588.98055    
     12400   307.03544     -5059.1804      0             -5032.2326     -550.58342    
     12500   305.43661     -5059.0236      0             -5032.2162     -498.48283    
     12600   308.08131     -5059.1199      0             -5032.0803     -615.14773    
     12700   296.38401     -5057.9156      0             -5031.9027     -576.00602    
     12800   304.38952     -5058.5143      0             -5031.7988     -480.82829    
     12900   310.74608     -5058.9181      0             -5031.6447     -650.76255    
     13000   303.3059      -5058.1783      0             -5031.5579     -603.03977    
     13100   301.24056     -5058.003       0             -5031.5638     -473.26865    
     13200   297.74205     -5057.4997      0             -5031.3676     -658.01778    
     13300   303.40054     -5057.8934      0             -5031.2646     -602.08687    
     13400   295.54631     -5057.1582      0             -5031.2188     -476.27703    
     13500   300.88414     -5057.5615      0             -5031.1536     -676.10408    
     13600   295.09475     -5056.8613      0             -5030.9615     -624.01057    
     13700   299.27263     -5057.1538      0             -5030.8873     -491.31834    
     13800   303.98849     -5057.3202      0             -5030.6399     -665.33276    
     13900   309.17389     -5057.7773      0             -5030.6419     -636.18436    
     14000   305.79552     -5057.3849      0             -5030.546      -509.11076    
     14100   296.78508     -5056.4068      0             -5030.3587     -663.84343    
     14200   297.96393     -5056.356       0             -5030.2044     -649.10257    
     14300   307.02573     -5057.1432      0             -5030.1963     -533.29104    
     14400   309.18187     -5057.2493      0             -5030.1131     -642.2841     
     14500   307.33733     -5056.8786      0             -5029.9043     -666.75441    
     14600   302.22954     -5056.251       0             -5029.7251     -557.56163    
     14700   297.11308     -5055.7532      0             -5029.6763     -637.23564    
     14800   310.94253     -5056.8747      0             -5029.584      -677.398      
     14900   297.66471     -5055.5969      0             -5029.4715     -573.78109    
     15000   311.49789     -5056.6192      0             -5029.2798     -620.21258    
     15100   306.10505     -5056.0355      0             -5029.1694     -692.68681    
     15200   281.31578     -5053.7361      0             -5029.0457     -607.82718    
     15300   302.3189      -5055.4304      0             -5028.8965     -615.97146    
     15400   295.84739     -5054.8003      0             -5028.8345     -708.70733    
     15500   306.1375      -5055.6247      0             -5028.7557     -654.92422    
     15600   288.7214      -5053.8958      0             -5028.5554     -582.67624    
     15700   300.33503     -5054.9097      0             -5028.55       -721.72709    
     15800   294.65032     -5054.2286      0             -5028.3678     -684.41985    
     15900   305.6322      -5055.0341      0             -5028.2095     -576.14218    
     16000   306.13614     -5055.0191      0             -5028.1502     -695.01978    
     16100   291.87069     -5053.503       0             -5027.8862     -736.25319    
     16200   302.3426      -5054.359       0             -5027.8231     -564.09256    
     16300   298.09128     -5053.8881      0             -5027.7254     -721.04192    
     16400   317.47903     -5055.3046      0             -5027.4402     -741.5298     
     16500   297.81274     -5053.5587      0             -5027.4204     -572.76223    
     16600   315.60877     -5055.1165      0             -5027.4163     -702.56673    
     16700   292.85699     -5052.7989      0             -5027.0956     -787.12701    
     16800   300.21601     -5053.3531      0             -5027.0039     -559.12806    
     16900   301.08518     -5053.335       0             -5026.9095     -722.07821    
     17000   300.22621     -5053.002       0             -5026.6518     -795.42787    
     17100   308.65062     -5053.698       0             -5026.6084     -590.55711    
     17200   300.68019     -5052.8613      0             -5026.4713     -721.31512    
     17300   300.18599     -5052.5759      0             -5026.2293     -827.76473    
     17400   304.20668     -5052.9387      0             -5026.2392     -577.13244    
     17500   307.88104     -5053.2278      0             -5026.2058     -731.00069    
     17600   287.99333     -5051.1165      0             -5025.84       -809.8799     
     17700   294.22667     -5051.5997      0             -5025.7761     -607.68866    
     17800   294.45303     -5051.5827      0             -5025.7393     -706.43863    
     17900   299.50254     -5051.7845      0             -5025.4979     -835.36113    
     18000   300.53714     -5051.7849      0             -5025.4074     -618.04269    
     18100   306.57874     -5052.1208      0             -5025.2131     -713.03604    
     18200   309.52944     -5052.3094      0             -5025.1427     -831.03149    
     18300   306.65879     -5051.9181      0             -5025.0034     -658.5329     
     18400   296.61054     -5050.8938      0             -5024.861      -707.98356    
     18500   297.46949     -5050.821       0             -5024.7128     -843.89874    
     18600   312.74294     -5052.0483      0             -5024.5996     -693.60055    
     18700   314.15719     -5051.9973      0             -5024.4245     -707.36939    
     18800   296.8087      -5050.2873      0             -5024.2371     -830.2008     
     18900   295.77019     -5050.0547      0             -5024.0956     -735.87124    
     19000   300.2491      -5050.3712      0             -5024.0191     -698.79725    
     19100   303.04819     -5050.4198      0             -5023.822      -825.42023    
     19200   308.50682     -5050.7355      0             -5023.6586     -743.07555    
     19300   293.53315     -5049.3895      0             -5023.6268     -713.7749     
     19400   301.55432     -5049.8988      0             -5023.4321     -799.06896    
     19500   310.40975     -5050.5406      0             -5023.2967     -784.4069     
     19600   315.57729     -5050.7585      0             -5023.061      -697.16572    
     19700   294.32142     -5048.7909      0             -5022.959      -810.73895    
     19800   295.65335     -5048.7177      0             -5022.7689     -811.90787    
     19900   306.96624     -5049.5595      0             -5022.6178     -713.5915     
     20000   301.28076     -5048.9821      0             -5022.5394     -792.16237    
     20100   290.47152     -5047.8425      0             -5022.3485     -842.51956    
     20200   300.66271     -5048.5968      0             -5022.2083     -713.62703    
     20300   296.81328     -5048.1422      0             -5022.0916     -803.13371    
     20400   297.27894     -5048.0512      0             -5021.9597     -867.01738    
     20500   288.15302     -5047.0534      0             -5021.7629     -731.96638    
     20600   302.54346     -5048.221       0             -5021.6674     -796.04313    
     20700   289.15603     -5046.7783      0             -5021.3997     -890.32446    
     20800   296.65208     -5047.419       0             -5021.3826     -745.10818    
     20900   295.96015     -5047.1929      0             -5021.2172     -783.20767    
     21000   295.35419     -5046.9187      0             -5020.9961     -893.83825    
     21100   313.97438     -5048.3886      0             -5020.8318     -749.91661    
     21200   299.13674     -5046.8767      0             -5020.6222     -795.9661     
     21300   298.95776     -5046.845       0             -5020.6062     -911.12686    
     21400   305.70389     -5047.2454      0             -5020.4145     -775.16874    
     21500   300.54055     -5046.618       0             -5020.2402     -789.34485    
     21600   293.32216     -5045.7006      0             -5019.9564     -915.55194    
     21700   308.21671     -5046.9178      0             -5019.8663     -790.10932    
     21800   312.87492     -5047.269       0             -5019.8087     -799.78457    
     21900   305.53503     -5046.4124      0             -5019.5963     -906.28776    
     22000   297.88565     -5045.5865      0             -5019.4417     -804.36247    
     22100   298.98294     -5045.4511      0             -5019.2101     -807.99795    
     22200   302.9705      -5045.6542      0             -5019.0632     -906.45088    
     22300   297.99015     -5045.0942      0             -5018.9403     -828.59688    
     22400   306.02096     -5045.6974      0             -5018.8387     -810.09725    
     22500   295.76104     -5044.5267      0             -5018.5685     -896.63744    
     22600   307.71107     -5045.4615      0             -5018.4544     -853.27306    
     22700   304.83142     -5045.0539      0             -5018.2996     -828.43555    
     22800   312.88719     -5045.6244      0             -5018.1631     -891.616      
     22900   300.86348     -5044.4528      0             -5018.0467     -882.69729    
     23000   297.33205     -5043.8626      0             -5017.7665     -825.81067    
     23100   293.72369     -5043.4693      0             -5017.6899     -883.01966    
     23200   295.98944     -5043.4487      0             -5017.4704     -904.34221    
     23300   300.39173     -5043.6077      0             -5017.243      -840.12919    
     23400   300.07685     -5043.5074      0             -5017.1704     -874.1277     
     23500   298.56652     -5043.1628      0             -5016.9583     -912.6141     
     23600   300.11135     -5043.1822      0             -5016.8421     -845.46323    
     23700   295.08658     -5042.5645      0             -5016.6654     -859.43088    
     23800   304.28652     -5043.1703      0             -5016.4638     -932.19652    
     23900   298.07152     -5042.4153      0             -5016.2543     -861.26668    
     24000   298.13571     -5042.3639      0             -5016.1972     -873.09916    
     24100   310.18401     -5043.1206      0             -5015.8965     -955.51992    
     24200   297.57987     -5041.8394      0             -5015.7215     -881.76607    
     24300   297.34927     -5041.7002      0             -5015.6026     -870.79279    
     24400   288.81881     -5040.7861      0             -5015.4372     -971.75378    
     24500   301.77138     -5041.7654      0             -5015.2796     -889.65769    
     24600   302.53867     -5041.6599      0             -5015.1068     -879.73384    
     24700   291.76212     -5040.5473      0             -5014.9401     -973.16296    
     24800   300.16084     -5040.9905      0             -5014.6461     -887.27501    
     24900   298.80414     -5040.8668      0             -5014.6415     -886.06741    
     25000   299.73222     -5040.7016      0             -5014.3948     -996.79221    
     25100   299.9383      -5040.5567      0             -5014.2318     -905.44592    
     25200   295.82421     -5039.9969      0             -5014.0331     -882.02031    
     25300   295.84744     -5039.8002      0             -5013.8343     -994.44554    
     25400   303.66157     -5040.3439      0             -5013.6922     -919.79112    
     25500   305.55314     -5040.3708      0             -5013.5531     -892.13678    
     25600   302.28732     -5039.9111      0             -5013.3801     -999.25818    
     25700   299.09398     -5039.3765      0             -5013.1257     -938.48452    
     25800   293.6625      -5038.7232      0             -5012.9491     -885.62118    
     25900   303.01219     -5039.3213      0             -5012.7266     -1019.2361    
     26000   301.33131     -5039.0506      0             -5012.6035     -943.92018    
     26100   302.48785     -5039.0938      0             -5012.5451     -895.92365    
     26200   297.8291      -5038.3835      0             -5012.2438     -1007.1351    
     26300   296.39325     -5038.0429      0             -5012.0291     -961.74007    
     26400   311.59303     -5039.246       0             -5011.8983     -915.13674    
     26500   297.72104     -5037.8438      0             -5011.7135     -1010.0313    
     26600   308.23426     -5038.667       0             -5011.614      -977.0675     
     26700   296.15487     -5037.3289      0             -5011.3361     -941.53551    
     26800   292.05214     -5036.6789      0             -5011.0462     -984.93615    
     26900   302.15724     -5037.5196      0             -5010.9999     -1002.9612    
     27000   307.2379      -5037.8048      0             -5010.8392     -948.23414    
     27100   297.14804     -5036.7555      0             -5010.6755     -993.09806    
     27200   297.68882     -5036.5277      0             -5010.4003     -1011.0593    
     27300   316.75463     -5038.0024      0             -5010.2016     -956.27595    
     27400   303.54795     -5036.663       0             -5010.0213     -994.4447     
     27500   308.43794     -5036.9998      0             -5009.9289     -1035.9164    
     27600   293.06291     -5035.433       0             -5009.7115     -962.37843    
     27700   298.98966     -5035.6893      0             -5009.4476     -983.64031    
     27800   301.36504     -5035.7003      0             -5009.2502     -1053.9761    
     27900   308.63703     -5036.1781      0             -5009.0898     -979.85495    
     28000   307.68546     -5035.9644      0             -5008.9596     -975.7977     
     28100   309.52491     -5035.9145      0             -5008.7482     -1062.2609    
     28200   308.15479     -5035.6263      0             -5008.5803     -999.99703    
     28300   309.06862     -5035.4581      0             -5008.3319     -969.40708    
     28400   302.78081     -5034.6965      0             -5008.1222     -1075.1092    
     28500   308.32223     -5034.9429      0             -5007.8822     -1013.9048    
     28600   299.96849     -5034.0902      0             -5007.7627     -977.47942    
     28700   289.60729     -5033.0039      0             -5007.5857     -1078.3533    
     28800   314.1218      -5034.9753      0             -5007.4056     -1041.8824    
     28900   305.28519     -5033.9703      0             -5007.1762     -967.12697    
     29000   294.28351     -5032.8489      0             -5007.0204     -1081.3977    
     29100   292.63311     -5032.4321      0             -5006.7484     -1061.4761    
     29200   306.57897     -5033.5343      0             -5006.6266     -980.89147    
     29300   302.23989     -5032.9383      0             -5006.4114     -1081.3479    
     29400   307.57339     -5033.1738      0             -5006.1788     -1085.8005    
     29500   299.41122     -5032.2387      0             -5005.9601     -978.24849    
     29600   302.34583     -5032.3605      0             -5005.8243     -1103.243     
     29700   303.28736     -5032.2374      0             -5005.6186     -1082.296     
     29800   308.66977     -5032.5296      0             -5005.4383     -985.34055    
     29900   298.17488     -5031.3943      0             -5005.2242     -1087.7072    
     30000   297.84439     -5031.1408      0             -5004.9997     -1117.0608    
     30100   291.92847     -5030.3886      0             -5004.7667     -994.07213    
     30200   287.13014     -5029.8399      0             -5004.6392     -1112.6574    
     30300   298.26899     -5030.5222      0             -5004.3438     -1120.1898    
     30400   302.00231     -5030.6541      0             -5004.1481     -995.35557    
     30500   303.91853     -5030.7466      0             -5004.0724     -1114.9867    
     30600   289.54255     -5029.1882      0             -5003.7758     -1125.7244    
     30700   295.7557      -5029.5579      0             -5003.6002     -1013.1147    
     30800   293.86412     -5029.2051      0             -5003.4133     -1109.2591    
     30900   301.48476     -5029.6673      0             -5003.2067     -1135.2613    
     31000   301.18972     -5029.3519      0             -5002.9172     -1019.619     
     31100   287.66243     -5027.9962      0             -5002.7487     -1109.2553    
     31200   307.86581     -5029.5926      0             -5002.5719     -1149.416     
     31300   308.28469     -5029.4332      0             -5002.3758     -1037.6061    
     31400   289.81719     -5027.5555      0             -5002.119      -1109.5707    
     31500   296.5309      -5027.8377      0             -5001.8119     -1151.9056    
     31600   296.23107     -5027.7666      0             -5001.7671     -1061.349     
     31700   289.55833     -5026.9353      0             -5001.5214     -1107.0105    
     31800   308.72873     -5028.4725      0             -5001.3761     -1136.4168    
     31900   293.93704     -5026.9432      0             -5001.145      -1109.6995    
     32000   297.8156      -5026.9326      0             -5000.794      -1092.7208    
     32100   301.65123     -5027.1203      0             -5000.6451     -1137.1832    
     32200   306.85213     -5027.4314      0             -5000.4997     -1149.7735    
     32300   309.45316     -5027.4357      0             -5000.2757     -1091.1918    
     32400   304.81296     -5026.8119      0             -5000.0592     -1118.5292    
     32500   305.91254     -5026.6441      0             -4999.7949     -1186.5489    
     32600   307.13425     -5026.5107      0             -4999.5543     -1081.4923    
     32700   302.31808     -5026.0605      0             -4999.5268     -1125.1822    
     32800   288.22498     -5024.4523      0             -4999.1555     -1203.7321    
     32900   305.19823     -5025.6768      0             -4998.8902     -1086.688     
     33000   305.16168     -5025.5651      0             -4998.7818     -1111.418     
     33100   297.19168     -5024.5389      0             -4998.4551     -1230.2574    
     33200   300.32604     -5024.6766      0             -4998.3177     -1088.6341    
     33300   302.84717     -5024.7963      0             -4998.2161     -1133.9316    
     33400   292.33373     -5023.5822      0             -4997.9248     -1236.2986    
     33500   304.22334     -5024.4012      0             -4997.7002     -1109.125     
     33600   303.24221     -5024.1257      0             -4997.5108     -1134.4273    
     33700   295.46492     -5023.148       0             -4997.2158     -1255.2283    
     33800   300.03373     -5023.3121      0             -4996.9788     -1130.3884    
     33900   297.32101     -5022.9572      0             -4996.862      -1115.5607    
     34000   298.04922     -5022.6833      0             -4996.5243     -1243.5718    
     34100   301.38949     -5022.7713      0             -4996.319      -1148.8291    
     34200   295.5498      -5022.0712      0             -4996.1315     -1127.0537    
     34300   286.60421     -5021.1756      0             -4996.021      -1248.8966    
     34400   301.47382     -5022.254       0             -4995.7944     -1172.4821    
     34500   287.21975     -5020.7222      0             -4995.5136     -1132.4017    
     34600   286.78462     -5020.3699      0             -4995.1995     -1242.4478    
     34700   298.26124     -5021.2632      0             -4995.0855     -1194.48      
     34800   295.97592     -5020.8773      0             -4994.9002     -1140.3067    
     34900   301.91037     -5021.1467      0             -4994.6487     -1227.2766    
     35000   295.71457     -5020.3564      0             -4994.4023     -1228.4545    
     35100   295.33825     -5020.0687      0             -4994.1475     -1154.8768    
     35200   304.4594      -5020.6151      0             -4993.8935     -1217.9184    
     35300   290.54468     -5019.1967      0             -4993.6963     -1256.472     
     35400   299.94938     -5019.8109      0             -4993.485      -1151.3192    
     35500   297.69718     -5019.3895      0             -4993.2614     -1221.874     
     35600   297.13975     -5019.0788      0             -4992.9996     -1261.9036    
     35700   301.98051     -5019.326       0             -4992.8219     -1164.5289    
     35800   311.99889     -5019.9836      0             -4992.6002     -1217.9645    
     35900   292.6228      -5017.9626      0             -4992.2798     -1266.1785    
     36000   303.7965      -5018.8416      0             -4992.1781     -1179.7758    
     36100   300.63281     -5018.265       0             -4991.8792     -1220.937     
     36200   300.22311     -5017.8948      0             -4991.545      -1277.4468    
     36300   301.95463     -5017.8583      0             -4991.3564     -1204.2323    
     36400   309.65616     -5018.4077      0             -4991.2299     -1228.6222    
     36500   296.52281     -5017.0096      0             -4990.9845     -1281.2729    
     36600   308.34827     -5017.8197      0             -4990.7567     -1212.4329    
     36700   295.64329     -5016.3922      0             -4990.4443     -1206.2987    
     36800   300.81362     -5016.6185      0             -4990.2168     -1278.2953    
     36900   299.60783     -5016.3187      0             -4990.0228     -1249.6073    
     37000   294.346       -5015.6724      0             -4989.8383     -1212.9912    
     37100   299.83579     -5015.8405      0             -4989.5246     -1294.48      
     37200   298.07037     -5015.4644      0             -4989.3035     -1263.2124    
     37300   316.23449     -5016.8756      0             -4989.1204     -1234.2417    
     37400   310.51564     -5016.161       0             -4988.9078     -1284.3315    
     37500   298.78063     -5014.7542      0             -4988.5309     -1281.1191    
     37600   301.95004     -5014.7844      0             -4988.283      -1226.4836    
     37700   286.52526     -5013.2248      0             -4988.0771     -1300.5066    
     37800   304.03024     -5014.6298      0             -4987.9458     -1295.892     
     37900   300.41516     -5014.0993      0             -4987.7326     -1218.1271    
     38000   298.01159     -5013.6069      0             -4987.4511     -1307.3383    
     38100   293.37871     -5012.869       0             -4987.1198     -1303.276     
     38200   305.24544     -5013.7203      0             -4986.9296     -1220.0643    
     38300   300.43585     -5013.0488      0             -4986.6802     -1316.1795    
     38400   292.60882     -5012.1636      0             -4986.482      -1324.1168    
     38500   295.55062     -5012.296       0             -4986.3562     -1231.9886    
     38600   296.6902      -5012.087       0             -4986.0472     -1304.8589    
     38700   300.37451     -5012.0729      0             -4985.7098     -1316.2545    
     38800   295.15137     -5011.4128      0             -4985.5081     -1259.9956    
     38900   297.05278     -5011.3287      0             -4985.2571     -1320.7689    
     39000   297.65723     -5011.0755      0             -4984.9509     -1316.256     
     39100   300.60478     -5011.2411      0             -4984.8578     -1275.2733    
     39200   293.00627     -5010.2423      0             -4984.5258     -1321.4095    
     39300   301.10069     -5010.6864      0             -4984.2595     -1316.6044    
     39400   301.88468     -5010.6357      0             -4984.14       -1277.8908    
     39500   303.35241     -5010.4435      0             -4983.819      -1330.82      
     39600   293.91436     -5009.3839      0             -4983.5877     -1320.6178    
     39700   295.80001     -5009.2958      0             -4983.3341     -1309.6677    
     39800   295.23416     -5008.9804      0             -4983.0684     -1321.4425    
     39900   308.78135     -5009.9123      0             -4982.8113     -1329.708     
     40000   303.27086     -5009.1584      0             -4982.541      -1334.3335    
     40100   293.43158     -5008.0729      0             -4982.3191     -1304.4625    
     40200   292.67387     -5007.8434      0             -4982.1561     -1343.5073    
     40300   303.63548     -5008.3955      0             -4981.7461     -1343.2264    
     40400   293.436       -5007.272       0             -4981.5178     -1308.7579    
     40500   292.57266     -5007.1192      0             -4981.4408     -1354.4001    
     40600   301.48401     -5007.528       0             -4981.0675     -1356.7331    
     40700   299.29572     -5007.0288      0             -4980.7603     -1306.7101    
     40800   291.51094     -5006.1594      0             -4980.5742     -1368.0153    
     40900   302.88374     -5006.909       0             -4980.3256     -1368.7149    
     41000   294.51291     -5005.9096      0             -4980.0609     -1316.4556    
     41100   294.53679     -5005.6704      0             -4979.8196     -1375.9994    
     41200   296.45895     -5005.5286      0             -4979.5091     -1382.3183    
     41300   295.54476     -5005.1972      0             -4979.258      -1319.4843    
     41400   298.34076     -5005.1757      0             -4978.9911     -1389.8491    
     41500   292.93391     -5004.4632      0             -4978.7531     -1379.0331    
     41600   306.30467     -5005.5131      0             -4978.6295     -1337.1513    
     41700   295.41675     -5004.247       0             -4978.3189     -1390.3403    
     41800   299.35322     -5004.2664      0             -4977.9928     -1398.0139    
     41900   289.79086     -5003.1852      0             -4977.7509     -1342.4293    
     42000   299.224       -5003.8021      0             -4977.5399     -1402.1976    
     42100   292.95548     -5003.0145      0             -4977.3025     -1397.6111    
     42200   301.58657     -5003.5406      0             -4977.0711     -1353.0283    
     42300   297.99082     -5002.8885      0             -4976.7346     -1391.2714    
     42400   298.3921      -5002.6         0             -4976.4108     -1396.9808    
     42500   295.11027     -5002.1268      0             -4976.2256     -1370.8002    
     42600   298.28453     -5002.1418      0             -4975.9621     -1390.5092    
     42700   293.38585     -5001.482       0             -4975.7323     -1398.7929    
     42800   295.13225     -5001.287       0             -4975.3839     -1382.6279    
     42900   296.47902     -5001.2032      0             -4975.1819     -1391.7393    
     43000   310.11199     -5002.2372      0             -4975.0194     -1414.1605    
     43100   302.15949     -5001.1902      0             -4974.6704     -1386.9073    
     43200   311.80876     -5001.8398      0             -4974.4731     -1407.0145    
     43300   299.19205     -5000.343       0             -4974.0836     -1429.6031    
     43400   292.95776     -4999.5317      0             -4973.8195     -1391.3506    
     43500   304.61093     -5000.3457      0             -4973.6108     -1403.2312    
     43600   295.103       -4999.2564      0             -4973.3559     -1446.181     
     43700   299.31299     -4999.3797      0             -4973.1097     -1397.9892    
     43800   299.85236     -4999.1338      0             -4972.8164     -1412.6222    
     43900   302.74205     -4999.0883      0             -4972.5174     -1457.8218    
     44000   308.20254     -4999.3772      0             -4972.327      -1411.196     
     44100   311.92235     -4999.4033      0             -4972.0266     -1422.6904    
     44200   290.524       -4997.2576      0             -4971.759      -1452.4202    
     44300   294.60433     -4997.33        0             -4971.4733     -1428.526     
     44400   310.89339     -4998.487       0             -4971.2006     -1432.4917    
     44500   297.95505     -4997.0913      0             -4970.9405     -1457.7559    
     44600   308.72415     -4997.7966      0             -4970.7006     -1448.9712    
     44700   309.44285     -4997.6154      0             -4970.4563     -1424.3926    
     44800   294.05715     -4995.9516      0             -4970.1429     -1451.2981    
     44900   300.43792     -4996.171       0             -4969.8023     -1437.5401    
     45000   297.18091     -4995.6679      0             -4969.585      -1443.1675    
     45100   308.92584     -4996.4649      0             -4969.3512     -1468.4375    
     45200   298.8386      -4995.3467      0             -4969.1183     -1449.353     
     45300   299.83481     -4995.1418      0             -4968.8261     -1441.7728    
     45400   298.42953     -4994.7472      0             -4968.5547     -1475.9549    
     45500   308.37314     -4995.2994      0             -4968.2343     -1460.9202    
     45600   297.6369      -4994.1172      0             -4967.9943     -1447.6736    
     45700   291.5068      -4993.331       0             -4967.7462     -1504.3819    
     45800   291.78026     -4993.0783      0             -4967.4694     -1463.3684    
     45900   295.8861      -4993.0538      0             -4967.0846     -1444.872     
     46000   286.35351     -4991.998       0             -4966.8654     -1498.6575    
     46100   307.15455     -4993.5337      0             -4966.5754     -1479.9216    
     46200   296.68833     -4992.3607      0             -4966.3211     -1454.7747    
     46300   299.75629     -4992.3327      0             -4966.0238     -1502.9978    
     46400   300.2046      -4992.1399      0             -4965.7916     -1499.6495    
     46500   301.37542     -4991.9619      0             -4965.5109     -1459.848     
     46600   297.98363     -4991.3831      0             -4965.2298     -1507.5809    
     46700   301.6299      -4991.4399      0             -4964.9665     -1494.9656    
     46800   300.80477     -4991.1431      0             -4964.7421     -1465.726     
     46900   308.73806     -4991.559       0             -4964.4618     -1518.6183    
     47000   304.77939     -4990.8159      0             -4964.0661     -1503.0204    
     47100   296.27641     -4989.7984      0             -4963.795      -1474.3192    
     47200   290.69645     -4989.028       0             -4963.5143     -1513.0703    
     47300   296.78166     -4989.3417      0             -4963.2939     -1509.383     
     47400   295.53491     -4988.8676      0             -4962.9292     -1480.2239    
     47500   285.83933     -4987.8856      0             -4962.7981     -1523.0192    
     47600   293.73297     -4988.1846      0             -4962.4043     -1535.0015    
     47700   294.08722     -4987.9451      0             -4962.1338     -1484.432     
     47800   303.79463     -4988.6127      0             -4961.9493     -1534.608     
     47900   291.85268     -4987.2466      0             -4961.6314     -1534.072     
     48000   290.88923     -4986.767       0             -4961.2363     -1494.2014    
     48100   307.74109     -4987.9856      0             -4960.9759     -1532.7648    
     48200   307.5664      -4987.7352      0             -4960.7408     -1553.4874    
     48300   301.80447     -4987.0314      0             -4960.5427     -1502.6008    
     48400   309.73738     -4987.3978      0             -4960.2129     -1517.4891    
     48500   297.88461     -4985.9715      0             -4959.8268     -1563.7656    
     48600   297.61232     -4985.6935      0             -4959.5728     -1525.9415    
     48700   300.94927     -4985.7473      0             -4959.3336     -1512.5348    
     48800   289.27884     -4984.457       0             -4959.0676     -1577.3863    
     48900   280.44907     -4983.4023      0             -4958.788      -1528.4878    
     49000   307.58001     -4985.5224      0             -4958.5268     -1515.6338    
     49100   297.72774     -4984.2508      0             -4958.1199     -1584.7192    
     49200   296.40442     -4983.9074      0             -4957.8927     -1543.478     
     49300   300.4778      -4984.134       0             -4957.7618     -1525.8808    
     49400   304.69666     -4984.1351      0             -4957.3926     -1585.7509    
     49500   293.82549     -4982.7744      0             -4956.986      -1566.9486    
     49600   304.76786     -4983.473       0             -4956.7242     -1519.487     
     49700   304.1203      -4983.1947      0             -4956.5028     -1605.0289    
     49800   289.53648     -4981.5787      0             -4956.1668     -1571.7338    
     49900   292.35092     -4981.5692      0             -4955.9103     -1521.3307    
     50000   300.02169     -4982.0327      0             -4955.7005     -1590.3945    
     50100   297.84377     -4981.375       0             -4955.234      -1577.2346    
     50200   288.44291     -4980.3274      0             -4955.0115     -1542.7258    
     50300   287.5997      -4980.0371      0             -4954.7951     -1598.9874    
     50400   285.63487     -4979.5986      0             -4954.5291     -1610.8849    
     50500   298.51339     -4980.3645      0             -4954.1647     -1541.3962    
     50600   299.40491     -4980.0995      0             -4953.8215     -1587.2789    
     50700   300.99506     -4979.9912      0             -4953.5736     -1624.8595    
     50800   292.56987     -4979.0376      0             -4953.3595     -1541.3391    
     50900   300.66942     -4979.3811      0             -4952.9921     -1589.2654    
     51000   289.86423     -4978.085       0             -4952.6443     -1623.4319    
     51100   292.40211     -4978.0404      0             -4952.3769     -1557.171     
     51200   309.86504     -4979.2383      0             -4952.0421     -1595.1379    
     51300   297.70266     -4977.9417      0             -4951.8131     -1636.5885    
     51400   298.7385      -4977.7594      0             -4951.5398     -1569.001     
     51500   306.53736     -4978.1258      0             -4951.2218     -1585.523     
     51600   295.58371     -4976.8425      0             -4950.8998     -1638.6066    
     51700   303.34167     -4977.2064      0             -4950.5828     -1589.7111    
     51800   293.27746     -4976.124       0             -4950.3838     -1589.673     
     51900   298.5988      -4976.268       0             -4950.0607     -1650.0448    
     52000   297.94442     -4975.9331      0             -4949.7832     -1619.7573    
     52100   287.1951      -4974.6241      0             -4949.4177     -1582.3306    
     52200   292.98371     -4974.8265      0             -4949.112      -1653.7023    
     52300   307.21687     -4975.7607      0             -4948.797      -1631.3111    
     52400   301.44871     -4975.0327      0             -4948.5753     -1594.802     
     52500   294.25601     -4974.1263      0             -4948.3002     -1639.3139    
     52600   292.79915     -4973.6119      0             -4947.9136     -1646.4049    
     52700   295.73672     -4973.6293      0             -4947.6732     -1597.3542    
     52800   294.41899     -4973.2775      0             -4947.4371     -1655.5488    
     52900   300.9393      -4973.4786      0             -4947.0659     -1649.9557    
     53000   294.84382     -4972.7137      0             -4946.836      -1610.9433    
     53100   289.3093      -4971.912       0             -4946.52       -1654.7055    
     53200   298.99252     -4972.2863      0             -4946.0445     -1640.7357    
     53300   296.69111     -4971.8731      0             -4945.8332     -1627.0089    
     53400   306.80723     -4972.5372      0             -4945.6095     -1648.0203    
     53500   295.81607     -4971.28        0             -4945.317      -1675.9499    
     53600   294.03244     -4970.7614      0             -4944.9549     -1644.359     
     53700   301.33581     -4971.028       0             -4944.5804     -1634.9476    
     53800   306.05021     -4971.2016      0             -4944.3403     -1692.2539    
     53900   310.10524     -4971.2246      0             -4944.0074     -1659.2802    
     54000   295.11111     -4969.6338      0             -4943.7326     -1635.3808    
     54100   301.16141     -4969.9577      0             -4943.5254     -1677.5559    
     54200   302.27874     -4969.5309      0             -4943.0006     -1661.3437    
     54300   303.15009     -4969.4183      0             -4942.8115     -1635.2675    
     54400   308.84786     -4969.6855      0             -4942.5787     -1698.9201    
     54500   300.40986     -4968.6359      0             -4942.2697     -1667.3107    
     54600   297.41563     -4967.9504      0             -4941.847      -1638.6619    
     54700   305.17793     -4968.3408      0             -4941.5561     -1691.3631    
     54800   304.92435     -4967.957       0             -4941.1945     -1697.9288    
     54900   303.99363     -4967.6659      0             -4940.9851     -1653.5784    
     55000   293.69394     -4966.4158      0             -4940.6389     -1694.0579    
     55100   304.4638      -4967.064       0             -4940.3419     -1712.4108    
     55200   292.01031     -4965.641       0             -4940.0119     -1637.3711    
     55300   301.70928     -4966.208       0             -4939.7276     -1699.3083    
     55400   307.3573      -4966.3738      0             -4939.3978     -1717.4663    
     55500   291.08997     -4964.7141      0             -4939.1658     -1653.2175    
     55600   292.38038     -4964.4278      0             -4938.7663     -1694.4999    
     55700   296.59271     -4964.4767      0             -4938.4454     -1729.3459    
     55800   316.34501     -4965.9762      0             -4938.2114     -1674.3304    
     55900   294.37001     -4963.7106      0             -4937.8744     -1710.9812    
     56000   288.93747     -4962.9037      0             -4937.5443     -1729.9543    
     56100   291.98781     -4962.8285      0             -4937.2015     -1683.9446    
     56200   299.69237     -4963.2558      0             -4936.9525     -1707.5099    
     56300   297.46907     -4962.674       0             -4936.5659     -1727.8733    
     56400   307.64972     -4963.3834      0             -4936.3817     -1679.5903    
     56500   300.32955     -4962.3748      0             -4936.0156     -1735.7563    
     56600   310.13642     -4962.9049      0             -4935.6849     -1725.1244    
     56700   304.93805     -4962.1037      0             -4935.34       -1692.3048    
     56800   298.71955     -4961.3043      0             -4935.0864     -1731.9311    
     56900   300.60149     -4961.1356      0             -4934.7525     -1734.6847    
     57000   297.35796     -4960.5849      0             -4934.4865     -1722.2366    
     57100   311.91654     -4961.4489      0             -4934.0727     -1724.778     
     57200   307.29696     -4960.7723      0             -4933.8016     -1733.343     
     57300   299.44136     -4959.8         0             -4933.5187     -1733.479     
     57400   286.11289     -4958.2027      0             -4933.0912     -1705.3661    
     57500   311.92654     -4960.1626      0             -4932.7856     -1757.9016    
     57600   312.51581     -4959.926       0             -4932.4972     -1749.0105    
     57700   306.54782     -4959.1245      0             -4932.2195     -1714.0706    
     57800   305.73276     -4958.7333      0             -4931.8998     -1753.4432    
     57900   300.31373     -4957.8923      0             -4931.5345     -1746.8569    
     58000   296.6415      -4957.1733      0             -4931.1377     -1736.3809    
     58100   286.34631     -4956.0795      0             -4930.9475     -1767.4713    
     58200   301.63988     -4957.127       0             -4930.6528     -1748.3476    
     58300   301.70592     -4956.7873      0             -4930.3073     -1740.221     
     58400   301.81858     -4956.4282      0             -4929.9383     -1772.4113    
     58500   306.41767     -4956.4531      0             -4929.5595     -1751.812     
     58600   303.46124     -4955.9977      0             -4929.3636     -1756.0887    
     58700   285.58875     -4954.1149      0             -4929.0494     -1762.708     
     58800   292.34526     -4954.3274      0             -4928.6689     -1766.3134    
     58900   309.09116     -4955.3915      0             -4928.2633     -1755.5743    
     59000   306.1655      -4954.913       0             -4928.0415     -1792.3055    
     59100   302.25535     -4954.2207      0             -4927.6925     -1778.5478    
     59200   307.11931     -4954.3866      0             -4927.4315     -1771.3286    
     59300   294.01946     -4952.7865      0             -4926.9811     -1765.4886    
     59400   303.92957     -4953.3716      0             -4926.6964     -1798.5441    
     59500   306.44953     -4953.2341      0             -4926.3378     -1789.1944    
     59600   312.57466     -4953.5025      0             -4926.0685     -1764.6622    
     59700   300.27397     -4952.2227      0             -4925.8684     -1802.1345    
     59800   295.84158     -4951.418       0             -4925.4527     -1803.5148    
     59900   296.0263      -4951.0512      0             -4925.0696     -1756.8484    
     60000   286.19105     -4949.9564      0             -4924.8381     -1803.0486    
     60100   296.80115     -4950.4837      0             -4924.4342     -1815.6867    
     60200   287.06419     -4949.2931      0             -4924.0982     -1777.1314    
     60300   292.27475     -4949.5176      0             -4923.8654     -1799.2714    
     60400   303.00643     -4950.043       0             -4923.4488     -1804.0618    
     60500   306.24092     -4950.0202      0             -4923.1421     -1779.2943    
     60600   304.56386     -4949.5423      0             -4922.8115     -1799.8965    
     60700   298.48349     -4948.584       0             -4922.3868     -1828.4566    
     60800   292.6065      -4947.7835      0             -4922.1022     -1785.7774    
     60900   298.86143     -4948.0763      0             -4921.846      -1812.5877    
     61000   304.40778     -4948.2268      0             -4921.5097     -1842.7739    
     61100   298.27459     -4947.2571      0             -4921.0783     -1778.046     
     61200   291.00874     -4946.3818      0             -4920.8407     -1811.6378    
     61300   302.80235     -4947.0636      0             -4920.4874     -1859.2894    
     61400   298.91234     -4946.4029      0             -4920.168      -1790.0653    
     61500   308.07172     -4946.9188      0             -4919.88       -1822.7949    
     61600   291.70493     -4945.1211      0             -4919.5188     -1868.6334    
     61700   293.30998     -4944.9463      0             -4919.2032     -1797.5918    
     61800   300.95751     -4945.2948      0             -4918.8805     -1835.1235    
     61900   310.14284     -4945.6907      0             -4918.4702     -1855.7915    
     62000   287.90858     -4943.4436      0             -4918.1745     -1820.0009    
     62100   295.88252     -4943.8125      0             -4917.8436     -1829.4256    
     62200   299.96958     -4943.7516      0             -4917.424      -1861.5232    
     62300   291.92719     -4942.7946      0             -4917.1729     -1818.6253    
     62400   300.04506     -4943.1949      0             -4916.8607     -1833.4813    
     62500   306.55297     -4943.4602      0             -4916.5547     -1878.9255    
     62600   298.38115     -4942.3553      0             -4916.1671     -1840.6713    
     62700   301.3937      -4942.3435      0             -4915.8909     -1832.5335    
     62800   297.37386     -4941.6634      0             -4915.5636     -1887.1233    
     62900   297.12325     -4941.2436      0             -4915.1658     -1840.5507    
     63000   307.64822     -4941.8444      0             -4914.8428     -1843.5011    
     63100   296.09118     -4940.4407      0             -4914.4535     -1888.1618    
     63200   309.78357     -4941.345       0             -4914.156      -1867.1624    
     63300   302.07406     -4940.3381      0             -4913.8257     -1841.7704    
     63400   292.98746     -4939.2945      0             -4913.5797     -1871.0655    
     63500   301.09974     -4939.6106      0             -4913.1838     -1884.6943    
     63600   299.57479     -4938.9961      0             -4912.7031     -1839.4494    
     63700   307.3314      -4939.4466      0             -4912.4729     -1881.9603    
     63800   293.6987      -4937.8541      0             -4912.0769     -1888.4076    
     63900   300.23234     -4938.1283      0             -4911.7776     -1845.444     
     64000   296.94583     -4937.4488      0             -4911.3865     -1898.0373    
     64100   294.44316     -4936.8561      0             -4911.0135     -1910.0773    
     64200   290.02541     -4936.1601      0             -4910.7052     -1837.9055    
     64300   298.58925     -4936.6712      0             -4910.4647     -1893.8764    
     64400   305.29977     -4936.8693      0             -4910.0739     -1906.3634    
     64500   300.45924     -4936.0809      0             -4909.7103     -1872.7184    
     64600   304.70966     -4936.0873      0             -4909.3437     -1893.5768    
     64700   306.56107     -4935.8873      0             -4908.9812     -1928.3406    
     64800   305.72486     -4935.5273      0             -4908.6946     -1873.3913    
     64900   302.64382     -4934.9503      0             -4908.388      -1881.1001    
     65000   301.0636      -4934.4409      0             -4908.0172     -1930.3001    
     65100   295.4607      -4933.5232      0             -4907.5914     -1888.7833    
     65200   295.03721     -4933.1512      0             -4907.2565     -1884.261     
     65300   307.90785     -4933.9771      0             -4906.9528     -1954.8195    
     65400   304.18868     -4933.3427      0             -4906.6448     -1908.8389    
     65500   300.58869     -4932.6498      0             -4906.2678     -1880.6289    
     65600   305.15478     -4932.6296      0             -4905.8469     -1946.7278    
     65700   305.51147     -4932.3291      0             -4905.5151     -1911.0282    
     65800   291.32517     -4930.8156      0             -4905.2467     -1887.4512    
     65900   287.96139     -4930.1319      0             -4904.8582     -1951.584     
     66000   283.19642     -4929.3536      0             -4904.4982     -1945.6635    
     66100   315.15716     -4931.9055      0             -4904.2449     -1876.9749    
     66200   298.81784     -4930.0629      0             -4903.8364     -1965.1594    
     66300   296.48979     -4929.4752      0             -4903.453      -1950.9066    
     66400   296.17161     -4929.1081      0             -4903.1138     -1890.2888    
     66500   292.39306     -4928.4162      0             -4902.7535     -1959.149     
     66600   292.33659     -4928.0382      0             -4902.3805     -1958.6989    
     66700   305.17425     -4928.8985      0             -4902.114      -1895.4926    
     66800   310.94386     -4928.998       0             -4901.7072     -1961.4944    
     66900   299.57568     -4927.5699      0             -4901.2769     -1964.8499    
     67000   293.9436      -4926.7924      0             -4900.9936     -1928.9628    
     67100   305.69107     -4927.4909      0             -4900.6611     -1942.8612    
     67200   286.00765     -4925.4571      0             -4900.3549     -1980.7663    
     67300   296.81484     -4926.0119      0             -4899.9612     -1933.1981    
     67400   304.53851     -4926.2605      0             -4899.5319     -1934.4084    
     67500   297.98567     -4925.3785      0             -4899.225      -2013.5857    
     67600   299.129       -4925.1423      0             -4898.8884     -1931.9513    
     67700   303.97137     -4925.2269      0             -4898.548      -1949.8147    
     67800   295.94821     -4924.1001      0             -4898.1254     -1998.6211    
     67900   297.61142     -4923.8916      0             -4897.771      -1959.2694    
     68000   298.99346     -4923.741       0             -4897.4991     -1945.1103    
     68100   297.75754     -4923.2621      0             -4897.1286     -2004.8185    
     68200   303.61324     -4923.4535      0             -4896.8061     -1951.4886    
     68300   310.83047     -4923.6174      0             -4896.3366     -1950.0023    
     68400   302.69392     -4922.5273      0             -4895.9606     -1988.1145    
     68500   300.78        -4922.0954      0             -4895.6967     -1996.6827    
     68600   297.31975     -4921.5051      0             -4895.4101     -1956.5574    
     68700   303.24687     -4921.6132      0             -4894.9979     -1996.2876    
     68800   298.51049     -4920.7021      0             -4894.5025     -1998.4247    
     68900   302.27635     -4920.8051      0             -4894.275      -1963.0584    
     69000   296.13192     -4919.8986      0             -4893.9078     -2000.406     
     69100   296.71922     -4919.5952      0             -4893.5528     -1997.3468    
     69200   287.41141     -4918.3367      0             -4893.1112     -1964.0023    
     69300   303.11234     -4919.3258      0             -4892.7223     -2014.8843    
     69400   301.24096     -4918.9397      0             -4892.5005     -2005.5632    
     69500   298.59009     -4918.3568      0             -4892.1502     -1992.9224    
     69600   298.94963     -4918.0265      0             -4891.7884     -2009.0036    
     69700   306.39954     -4918.2365      0             -4891.3445     -2018.3212    
     69800   302.47388     -4917.4844      0             -4890.937      -1980.7994    
     69900   295.68237     -4916.5769      0             -4890.6256     -2009.7391    
     70000   299.26413     -4916.5434      0             -4890.2777     -2044.7528    
     70100   313.89168     -4917.5296      0             -4889.9801     -1997.0283    
     70200   301.93531     -4915.9823      0             -4889.4822     -1993.8715    
     70300   308.12145     -4916.2465      0             -4889.2034     -2035.0792    
     70400   305.16004     -4915.5535      0             -4888.7703     -2033.5607    
     70500   298.48725     -4914.6877      0             -4888.4902     -1996.8189    
     70600   296.41011     -4914.2007      0             -4888.1855     -2036.6771    
     70700   300.22048     -4914.0889      0             -4887.7393     -2037.2475    
     70800   296.0662      -4913.3818      0             -4887.3967     -2016.805     
     70900   295.15594     -4912.9629      0             -4887.0577     -2038.007     
     71000   313.9332      -4914.1459      0             -4886.5927     -2034.5053    
     71100   305.55374     -4913.0847      0             -4886.2669     -2014.2962    
     71200   298.27536     -4912.0561      0             -4885.8772     -2040.9555    
     71300   297.13854     -4911.5327      0             -4885.4536     -2045.8978    
     71400   299.09944     -4911.3836      0             -4885.1324     -2022.3068    
     71500   309.25944     -4911.9151      0             -4884.7722     -2049.6505    
     71600   297.26577     -4910.4319      0             -4884.3416     -2060.9447    
     71700   304.38275     -4910.8366      0             -4884.1217     -2028.5777    
     71800   316.23889     -4911.5501      0             -4883.7945     -2044.7594    
     71900   300.68637     -4909.7181      0             -4883.3276     -2060.5285    
     72000   305.18717     -4909.7825      0             -4882.9969     -2037.3383    
     72100   298.55987     -4908.8449      0             -4882.641      -2043.9761    
     72200   299.79219     -4908.5338      0             -4882.2218     -2086.7891    
     72300   305.08785     -4908.6139      0             -4881.8371     -2047.0799    
     72400   296.49515     -4907.5246      0             -4881.5019     -2040.3146    
     72500   284.48505     -4905.9658      0             -4880.9972     -2083.2338    
     72600   307.26272     -4907.6531      0             -4880.6853     -2050.9668    
     72700   310.99844     -4907.6378      0             -4880.3422     -2067.1803    
     72800   293.84319     -4905.7624      0             -4879.9725     -2111.0391    
     72900   305.82321     -4906.4356      0             -4879.5942     -2060.5534    
     73000   296.49178     -4905.2409      0             -4879.2185     -2052.7729    
     73100   286.71675     -4904.0277      0             -4878.8632     -2089.6768    
     73200   302.03059     -4904.9277      0             -4878.4191     -2066.7981    
     73300   295.73234     -4904.1178      0             -4878.162      -2060.5062    
     73400   296.0304      -4903.7379      0             -4877.756      -2082.4215    
     73500   298.96985     -4903.6184      0             -4877.3785     -2085.9205    
     73600   300.97296     -4903.3413      0             -4876.9256     -2075.2044    
     73700   305.42628     -4903.4234      0             -4876.6169     -2083.59      
     73800   304.72016     -4902.9443      0             -4876.1998     -2107.3728    
     73900   305.16547     -4902.6588      0             -4875.8751     -2080.632     
     74000   296.11153     -4901.5071      0             -4875.5181     -2087.4007    
     74100   301.8677      -4901.5911      0             -4875.0969     -2122.8831    
     74200   300.56158     -4901.0964      0             -4874.7169     -2078.1903    
     74300   297.46465     -4900.5453      0             -4874.4375     -2083.7324    
     74400   304.79944     -4900.7028      0             -4873.9513     -2132.5654    
     74500   283.76352     -4898.4974      0             -4873.5922     -2083.44      
     74600   290.47013     -4898.6678      0             -4873.1739     -2101.3435    
     74700   290.79133     -4898.3164      0             -4872.7943     -2131.513     
     74800   303.84579     -4899.096       0             -4872.4281     -2107.7274    
     74900   295.96046     -4898.0215      0             -4872.0457     -2092.7582    
     75000   296.47618     -4897.7469      0             -4871.7259     -2129.1479    
     75100   302.03559     -4897.7941      0             -4871.2852     -2129.3916    
     75200   297.58365     -4897.1107      0             -4870.9925     -2107.8764    
     75300   301.30218     -4897.0994      0             -4870.6548     -2131.4922    
     75400   294.52396     -4896.1087      0             -4870.2591     -2142.2547    
     75500   298.54955     -4895.9994      0             -4869.7965     -2111.8473    
     75600   309.43198     -4896.5858      0             -4869.4277     -2138.633     
     75700   302.40974     -4895.6044      0             -4869.0627     -2146.7166    
     75800   312.39622     -4896.1265      0             -4868.7082     -2125.1139    
     75900   298.86219     -4894.4515      0             -4868.2211     -2129.4953    
     76000   296.66248     -4893.8325      0             -4867.7952     -2133.6502    
     76100   298.40836     -4893.5957      0             -4867.4051     -2135.7122    
     76200   287.14645     -4892.3721      0             -4867.1699     -2147.5053    
     76300   299.33583     -4893.0503      0             -4866.7783     -2144.227     
     76400   303.05907     -4892.9552      0             -4866.3564     -2139.5551    
     76500   306.51981     -4892.819       0             -4865.9165     -2141.851     
     76600   311.96489     -4892.9564      0             -4865.576      -2155.1935    
     76700   289.7685      -4890.5858      0             -4865.1536     -2142.6745    
     76800   313.37102     -4892.3524      0             -4864.8486     -2146.1146    
     76900   297.23653     -4890.5996      0             -4864.5119     -2170.8571    
     77000   293.32664     -4889.8313      0             -4864.0867     -2159.7959    
     77100   304.36689     -4890.3414      0             -4863.6278     -2154.6079    
     77200   293.38078     -4889.0046      0             -4863.2552     -2189.1518    
     77300   301.05935     -4889.3135      0             -4862.8902     -2142.7907    
     77400   305.43223     -4889.2814      0             -4862.4744     -2148.1324    
     77500   290.85012     -4887.6239      0             -4862.0967     -2200.7626    
     77600   302.91583     -4888.2538      0             -4861.6676     -2140.0039    
     77700   283.19118     -4886.175       0             -4861.32       -2161.0162    
     77800   295.53397     -4886.8448      0             -4860.9065     -2195.8478    
     77900   301.28167     -4887.0037      0             -4860.5609     -2167.9109    
     78000   304.68222     -4886.8992      0             -4860.158      -2159.2577    
     78100   289.30413     -4885.1164      0             -4859.7249     -2183.8556    
     78200   301.20419     -4885.8221      0             -4859.3861     -2171.2623    
     78300   310.57761     -4886.225       0             -4858.9663     -2195.7266    
     78400   303.76714     -4885.2547      0             -4858.5938     -2193.3493    
     78500   291.93335     -4883.8255      0             -4858.2032     -2173.4919    
     78600   303.58086     -4884.4865      0             -4857.8419     -2172.7111    
     78700   300.62929     -4883.8306      0             -4857.445      -2212.9021    
     78800   297.22282     -4883.106       0             -4857.0195     -2188.5212    
     78900   305.23536     -4883.4551      0             -4856.6653     -2180.1762    
     79000   308.22437     -4883.2907      0             -4856.2386     -2214.2268    
     79100   294.46726     -4881.7356      0             -4855.8909     -2214.7486    
     79200   296.55358     -4881.4227      0             -4855.3949     -2166.5118    
     79300   302.64582     -4881.5981      0             -4855.0356     -2223.5326    
     79400   307.15434     -4881.5279      0             -4854.5697     -2218.0036    
     79500   301.63262     -4880.6907      0             -4854.2171     -2163.3286    
     79600   298.10106     -4880.0461      0             -4853.8825     -2214.9066    
     79700   306.26573     -4880.2678      0             -4853.3876     -2237.0121    
     79800   314.30054     -4880.6366      0             -4853.0512     -2193.6166    
     79900   301.41808     -4879.1577      0             -4852.703      -2232.5775    
     80000   303.17468     -4878.964       0             -4852.355      -2239.5115    
     80100   293.22677     -4877.7176      0             -4851.9818     -2190.86      
     80200   302.74835     -4878.0545      0             -4851.483      -2224.2761    
     80300   312.09915     -4878.5073      0             -4851.1151     -2261.2438    
     80400   296.31005     -4876.6804      0             -4850.674      -2212.35      
     80500   294.07441     -4876.2084      0             -4850.3982     -2206.3531    
     80600   292.45785     -4875.5976      0             -4849.9293     -2250.2675    
     80700   288.78676     -4874.8656      0             -4849.5195     -2210.1075    
     80800   298.88511     -4875.3373      0             -4849.1049     -2208.9798    
     80900   292.65353     -4874.3692      0             -4848.6837     -2245.4971    
     81000   308.56777     -4875.399       0             -4848.3167     -2239.0905    
     81100   292.21332     -4873.6216      0             -4847.9748     -2210.1097    
     81200   298.77411     -4873.7045      0             -4847.4818     -2258.6725    
     81300   304.28071     -4873.8188      0             -4847.1128     -2243.7377    
     81400   307.53503     -4873.77        0             -4846.7784     -2239.6527    
     81500   292.17716     -4872.0329      0             -4846.3892     -2252.8413    
     81600   294.00428     -4871.7814      0             -4845.9773     -2247.2454    
     81700   299.17964     -4871.7944      0             -4845.5361     -2243.5667    
     81800   311.33281     -4872.463       0             -4845.138      -2264.1232    
     81900   301.97792     -4871.2199      0             -4844.716      -2260.4331    
     82000   296.59058     -4870.3548      0             -4844.3238     -2250.2067    
     82100   302.38876     -4870.485       0             -4843.9451     -2243.8031    
     82200   301.08651     -4869.9326      0             -4843.5069     -2269.199     
     82300   296.32531     -4869.0949      0             -4843.0871     -2261.2909    
     82400   300.48048     -4869.115       0             -4842.7425     -2255.82      
     82500   299.46426     -4868.6268      0             -4842.3435     -2282.8564    
     82600   296.02199     -4867.8357      0             -4841.8546     -2253.5639    
     82700   292.53116     -4867.1391      0             -4841.4643     -2250.6438    
     82800   298.8251      -4867.2685      0             -4841.0414     -2295.3743    
     82900   308.32071     -4867.7403      0             -4840.6797     -2275.1798    
     83000   303.82303     -4866.9207      0             -4840.2549     -2253.5131    
     83100   302.62511     -4866.4506      0             -4839.8899     -2302.9326    
     83200   293.7776      -4865.2378      0             -4839.4537     -2282.83      
     83300   293.64016     -4864.7778      0             -4839.0057     -2256.66      
     83400   301.73499     -4865.1513      0             -4838.6687     -2301.4512    
     83500   293.12395     -4863.9492      0             -4838.2224     -2291.4925    
     83600   292.67558     -4863.5328      0             -4837.8454     -2272.5705    
     83700   303.14885     -4864.0929      0             -4837.4863     -2312.4804    
     83800   297.50592     -4863.0588      0             -4836.9474     -2284.1952    
     83900   300.33176     -4863.029       0             -4836.6696     -2280.5247    
     84000   300.14565     -4862.5693      0             -4836.2262     -2300.6669    
     84100   309.5749      -4863.0291      0             -4835.8585     -2289.574     
     84200   294.51159     -4861.2015      0             -4835.3529     -2297.6357    
     84300   297.90436     -4861.0828      0             -4834.9365     -2311.3135    
     84400   297.60137     -4860.6668      0             -4834.547      -2281.3291    
[...]
    263600   313.04751     -5016.6857      0             -4989.2102     -35.271561    
    263700   304.76912     -5016.1218      0             -4989.3729     -21.917897    
    263800   302.73616     -5016.0616      0             -4989.4912     -3.9368539    
    263900   300.41909     -5015.9204      0             -4989.5533      48.800533    
    264000   304.23058     -5016.4051      0             -4989.7035      137.8965     
    264100   287.94234     -5014.7534      0             -4989.4814      98.801914    
    264200   301.23991     -5015.7206      0             -4989.2815      135.41057    
    264300   302.31088     -5015.794       0             -4989.2609      152.9703     
    264400   292.80914     -5014.9959      0             -4989.2967      57.912548    
    264500   300.43176     -5015.7756      0             -4989.4075      75.657017    
    264600   307.98645     -5016.6319      0             -4989.6007      45.632546    
    264700   310.67919     -5017.0953      0             -4989.8277     -16.106983    
    264800   296.60722     -5015.8998      0             -4989.8673     -1.8094646    
    264900   300.30539     -5016.2141      0             -4989.857      -30.747688    
    265000   299.61015     -5015.9217      0             -4989.6257     -161.69302    
    265100   295.84074     -5015.3265      0             -4989.3612     -132.8263     
    265200   295.46344     -5015.1396      0             -4989.2075     -138.29252    
    265300   296.25048     -5014.9832      0             -4988.982      -212.53977    
    265400   290.31877     -5014.3822      0             -4988.9016     -139.7579     
    265500   299.72382     -5015.1642      0             -4988.8581     -117.58717    
    265600   309.29292     -5016.1207      0             -4988.9748     -125.2589     
    265700   301.34496     -5015.5744      0             -4989.1261     -50.365482    
    265800   309.97955     -5016.73        0             -4989.5238     -37.511127    
    265900   308.68797     -5016.7798      0             -4989.687      -51.100821    
    266000   294.01652     -5015.6345      0             -4989.8293      48.528861    
    266100   292.23586     -5015.5255      0             -4989.8767      83.04145     
    266200   298.51258     -5016.0222      0             -4989.8224      86.921657    
    266300   301.39235     -5016.0321      0             -4989.5796      146.44794    
    266400   291.64682     -5014.9051      0             -4989.308       127.94848    
    266500   313.18254     -5016.6477      0             -4989.1604      78.002474    
    266600   303.8666      -5015.7795      0             -4989.1099      101.42388    
    266700   309.6079      -5016.2826      0             -4989.1091      46.137859    
    266800   297.22326     -5015.3764      0             -4989.2898     -12.616668    
    266900   290.74085     -5014.9026      0             -4989.3849      8.2297757    
    267000   297.68649     -5015.5634      0             -4989.4362     -20.163955    
    267100   295.67697     -5015.4784      0             -4989.5275     -129.50835    
    267200   293.73472     -5015.1426      0             -4989.3622     -128.25632    
    267300   300.83127     -5015.8669      0             -4989.4637     -136.86564    
    267400   307.07019     -5016.3787      0             -4989.4278     -214.15558    
    267500   305.20851     -5016.0964      0             -4989.309      -151.60494    
    267600   291.78719     -5014.8941      0             -4989.2846     -114.4043     
    267700   298.54612     -5015.5467      0             -4989.344      -160.68965    
    267800   301.00319     -5015.725       0             -4989.3067     -74.622311    
    267900   307.3762      -5016.3483      0             -4989.3706     -22.919812    
    268000   311.60529     -5016.7942      0             -4989.4453     -47.185899    
    268100   301.18747     -5016.0127      0             -4989.5782     -10.084216    
    268200   305.70355     -5016.3608      0             -4989.53        96.878374    
    268300   297.47687     -5015.5939      0             -4989.4851      56.197202    
    268400   300.90222     -5015.7906      0             -4989.3811      112.97526    
    268500   299.94123     -5015.557       0             -4989.2318      148.40254    
    268600   296.44513     -5015.0564      0             -4989.0381      106.68727    
    268700   303.51189     -5015.676       0             -4989.0375      99.063202    
    268800   302.15321     -5015.7429      0             -4989.2236      94.071424    
    268900   307.14618     -5016.3947      0             -4989.4372     -6.2747093    
    269000   301.70271     -5016.1691      0             -4989.6893     -3.072647     
    269100   299.533       -5016.0515      0             -4989.7622     -6.6261863    
    269200   293.70853     -5015.6423      0             -4989.8642     -88.955377    
    269300   303.78032     -5016.4577      0             -4989.7956     -102.36145    
    269400   302.791       -5016.1792      0             -4989.6039     -112.71429    
    269500   297.54644     -5015.5744      0             -4989.4594     -173.06485    
    269600   297.82415     -5015.4639      0             -4989.3246     -167.66706    
    269700   304.77386     -5015.8141      0             -4989.0648     -103.32777    
    269800   301.17253     -5015.3818      0             -4988.9486     -161.74702    
    269900   292.21251     -5014.5377      0             -4988.8909     -126.95822    
    270000   300.08873     -5015.3359      0             -4988.9979     -14.687166    
    270100   301.84074     -5015.6824      0             -4989.1905     -66.329436    
    270200   313.48281     -5016.9236      0             -4989.41       -27.267515    
    270300   303.7253      -5016.2381      0             -4989.5809      79.896302    
    270400   293.56114     -5015.3791      0             -4989.614       38.612968    
    270500   301.87905     -5016.1146      0             -4989.6194      88.096061    
    270600   291.38381     -5015.1428      0             -4989.5687      151.31747    
    270700   293.64375     -5015.1803      0             -4989.4079      106.00323    
    270800   310.64992     -5016.6383      0             -4989.3733      78.77679     
    270900   310.47548     -5016.644       0             -4989.3943      132.15801    
    271000   302.50956     -5016.0454      0             -4989.4949      30.137956    
    271100   310.12767     -5016.7871      0             -4989.5679     -5.0195205    
    271200   301.12427     -5016.0048      0             -4989.5758      17.57297     
    271300   284.43239     -5014.6131      0             -4989.6491     -85.943108    
    271400   305.39021     -5016.4446      0             -4989.6413     -116.09068    
    271500   296.97637     -5015.5397      0             -4989.4748     -67.780676    
    271600   307.28057     -5016.3299      0             -4989.3606     -158.71943    
    271700   301.93565     -5015.6637      0             -4989.1635     -223.59088    
    271800   309.33764     -5016.2929      0             -4989.1431     -96.523333    
    271900   287.30918     -5014.2888      0             -4989.0724     -176.97227    
    272000   294.53301     -5014.8991      0             -4989.0486     -149.82404    
    272100   297.82693     -5015.4361      0             -4989.2965     -47.629461    
    272200   308.91092     -5016.5268      0             -4989.4145     -45.439953    
    272300   301.00533     -5016.0378      0             -4989.6193     -56.335017    
    272400   296.13173     -5015.7776      0             -4989.7868      71.285304    
    272500   303.72873     -5016.4832      0             -4989.8256      39.667063    
    272600   287.20824     -5014.9133      0             -4989.7057      43.222487    
    272700   288.24721     -5014.7954      0             -4989.4966      173.68871    
    272800   298.44295     -5015.5913      0             -4989.3977      131.84045    
    272900   294.12738     -5014.9886      0             -4989.1737      80.114304    
    273000   297.24154     -5015.1919      0             -4989.1037      126.75101    
    273100   306.1266      -5015.9564      0             -4989.0884      76.2738      
    273200   319.0787      -5017.2202      0             -4989.2154     -32.100527    
    273300   305.64809     -5016.1456      0             -4989.3196      39.046326    
    273400   309.95208     -5016.7124      0             -4989.5087     -37.581187    
    273500   304.40721     -5016.2843      0             -4989.5672     -130.62843    
    273600   299.54528     -5015.8749      0             -4989.5845     -47.521331    
    273700   294.42013     -5015.4476      0             -4989.607      -130.73085    
    273800   287.82187     -5014.7716      0             -4989.5102     -203.42541    
    273900   309.94112     -5016.6711      0             -4989.4683     -136.07717    
    274000   295.2988      -5015.3395      0             -4989.4218     -139.70354    
    274100   299.24682     -5015.4633      0             -4989.1991     -164.32318    
    274200   290.13876     -5014.5595      0             -4989.0948     -71.373809    
    274300   304.17554     -5015.9074      0             -4989.2106     -76.171019    
    274400   303.44021     -5015.9738      0             -4989.3415     -62.330002    
    274500   289.40471     -5014.9399      0             -4989.5395      31.979729    
    274600   302.02297     -5016.0037      0             -4989.4958      44.563115    
    274700   299.69913     -5015.7627      0             -4989.4588      52.03295     
    274800   295.74462     -5015.4242      0             -4989.4674      118.17932    
    274900   296.73923     -5015.3774      0             -4989.3333      111.56846    
    275000   294.92404     -5015.2019      0             -4989.3171      105.95738    
    275100   303.74762     -5015.8875      0             -4989.2283      113.5315     
    275200   302.19343     -5015.795       0             -4989.2722      93.431792    
    275300   302.96815     -5015.9969      0             -4989.4061      31.520893    
    275400   303.44905     -5016.2115      0             -4989.5785      4.1581668    
    275500   308.77386     -5016.7537      0             -4989.6533     -27.207751    
    275600   298.11711     -5015.8933      0             -4989.7283     -87.840684    
    275700   298.47763     -5015.8977      0             -4989.701      -97.55974     
    275800   284.23075     -5014.5444      0             -4989.5982     -137.73485    
    275900   300.78724     -5015.8183      0             -4989.4189     -139.83154    
    276000   312.59268     -5016.6921      0             -4989.2566     -172.57297    
    276100   307.22796     -5016.0719      0             -4989.1072     -140.21508    
    276200   301.09324     -5015.3428      0             -4988.9166     -134.39042    
    276300   295.16933     -5014.7912      0             -4988.8849     -107.4487     
    276400   305.24156     -5015.8214      0             -4989.0311     -114.20293    
    276500   311.06128     -5016.5558      0             -4989.2547     -41.011031    
    276600   302.35876     -5016.0319      0             -4989.4946      5.212678     
    276700   292.25948     -5015.2527      0             -4989.6018      24.765343    
    276800   294.05927     -5015.5217      0             -4989.7128      75.070735    
    276900   290.09138     -5015.0942      0             -4989.6335      55.665518    
    277000   289.96192     -5015.0045      0             -4989.5553      70.127579    
    277100   294.1035      -5015.2675      0             -4989.4547      131.88393    
    277200   286.20012     -5014.3419      0             -4989.2227      81.762223    
    277300   306.2915      -5016.1857      0             -4989.3033      88.488419    
    277400   308.07988     -5016.3258      0             -4989.2864      77.521394    
    277500   305.54761     -5016.2181      0             -4989.4009      11.24995     
    277600   296.03657     -5015.3836      0             -4989.4012     -14.062409    
    277700   305.46944     -5016.4158      0             -4989.6055     -34.288932    
    277800   300.4555      -5015.9458      0             -4989.5755     -125.78587    
    277900   296.8064      -5015.6112      0             -4989.5612     -103.6288     
    278000   294.96431     -5015.2714      0             -4989.383      -112.35463    
    278100   299.36491     -5015.7139      0             -4989.4393     -162.14626    
    278200   289.65323     -5014.6763      0             -4989.2541     -145.24288    
    278300   290.62498     -5014.6881      0             -4989.1806     -139.04953    
    278400   301.74108     -5015.6752      0             -4989.1921     -152.32739    
    278500   297.9313      -5015.4314      0             -4989.2827     -78.276768    
    278600   301.86336     -5015.916       0             -4989.4221     -63.474659    
    278700   300.12529     -5015.8883      0             -4989.547      -46.561764    
    278800   289.48113     -5015.1197      0             -4989.7127      30.782956    
    278900   311.69388     -5017.0793      0             -4989.7227      61.342381    
    279000   292.11874     -5015.3229      0             -4989.6843      47.358442    
    279100   297.38025     -5015.7375      0             -4989.6371      92.215806    
    279200   292.18926     -5015.0321      0             -4989.3874      104.89466    
    279300   301.79347     -5015.6453      0             -4989.1576      118.47384    
    279400   299.07829     -5015.2659      0             -4989.0165      94.741581    
    279500   291.39501     -5014.6559      0             -4989.0809      71.733188    
    279600   309.95027     -5016.3844      0             -4989.1808      54.883589    
    279700   298.00298     -5015.4836      0             -4989.3285      12.25376     
    279800   319.08108     -5017.5495      0             -4989.5445     -27.434677    
    279900   293.18017     -5015.4524      0             -4989.7207     -64.40009     
    280000   294.15039     -5015.5254      0             -4989.7085     -90.159357    
    280100   308.76567     -5016.6435      0             -4989.5439     -123.85825    
    280200   301.92061     -5016.0458      0             -4989.5469     -154.81103    
    280300   304.60287     -5016.1402      0             -4989.4059     -117.78367    
    280400   290.00659     -5014.6966      0             -4989.2434     -158.8301     
    280500   304.98345     -5015.895       0             -4989.1274     -145.87059    
    280600   294.98997     -5014.9748      0             -4989.0842     -79.177785    
    280700   295.07328     -5015.0323      0             -4989.1345     -102.04079    
    280800   296.55808     -5015.2361      0             -4989.2079     -72.458034    
    280900   303.59996     -5016.0422      0             -4989.3959     -8.9680329    
    281000   296.53211     -5015.4964      0             -4989.4704      6.7834561    
    281100   305.01496     -5016.2982      0             -4989.5277      60.315991    
    281200   297.60126     -5015.5472      0             -4989.4274      107.42476    
    281300   303.63057     -5016.1007      0             -4989.4517      59.833528    
    281400   297.97548     -5015.5195      0             -4989.3669      97.902259    
    281500   293.21361     -5015.0221      0             -4989.2875      104.97086    
    281600   300.26728     -5015.6506      0             -4989.2968      102.49914    
    281700   310.64514     -5016.6177      0             -4989.3532      45.423741    
    281800   304.48128     -5016.199       0             -4989.4754      37.657327    
    281900   308.38342     -5016.6115      0             -4989.5454     -1.8785141    
    282000   302.45698     -5016.1925      0             -4989.6466     -69.761772    
    282100   302.46161     -5016.2227      0             -4989.6763     -80.981701    
    282200   297.59339     -5015.6247      0             -4989.5057     -119.17899    
    282300   294.31891     -5015.3354      0             -4989.5038     -121.61455    
    282400   295.14734     -5015.2078      0             -4989.3034     -145.88064    
    282500   288.7097      -5014.4642      0             -4989.1249     -104.27853    
    282600   296.10733     -5015.0882      0             -4989.0996     -141.83646    
    282700   290.05418     -5014.4896      0             -4989.0323     -149.45423    
    282800   287.939       -5014.4264      0             -4989.1547     -95.806607    
    282900   308.6375      -5016.2555      0             -4989.1671     -74.470153    
    283000   306.00143     -5016.2206      0             -4989.3636     -38.433506    
    283100   296.42398     -5015.5916      0             -4989.5752      5.451521     
    283200   293.64679     -5015.452       0             -4989.6793      69.901935    
    283300   298.36647     -5015.9214      0             -4989.7345      46.740383    
    283400   298.73203     -5015.8184      0             -4989.5994      71.620278    
    283500   303.42357     -5016.0524      0             -4989.4216      121.22712    
    283600   295.08828     -5015.252       0             -4989.3528      55.350393    
    283700   305.35126     -5016.1446      0             -4989.3446      124.63343    
    283800   295.21391     -5015.0886      0             -4989.1784      98.182426    
    283900   305.51746     -5016.1351      0             -4989.3206      6.2843953    
    284000   318.89276     -5017.3164      0             -4989.3279      21.345999    
    284100   304.09506     -5016.1461      0             -4989.4564     -36.950831    
    284200   307.34596     -5016.4349      0             -4989.4599     -99.970814    
    284300   305.38938     -5016.2812      0             -4989.4778     -69.605326    
    284400   304.03318     -5016.1425      0             -4989.4583     -100.06286    
    284500   291.18485     -5014.9858      0             -4989.4292     -160.53667    
    284600   299.99743     -5015.6677      0             -4989.3376     -102.66514    
    284700   296.83534     -5015.4052      0             -4989.3527     -132.11844    
    284800   300.5163      -5015.5723      0             -4989.1967     -157.7094     
    284900   301.71043     -5015.644       0             -4989.1635     -100.16099    
    285000   296.24958     -5015.2379      0             -4989.2367     -65.120075    
Loop time of 1174.86 on 1 procs for 280000 steps with 700 atoms

Performance: 10.296 ns/day, 2.331 hours/ns, 238.326 timesteps/s, 166.829 katom-step/s
71.8% CPU use with 1 MPI tasks x no OpenMP threads

MPI task timing breakdown:
Section |  min time  |  avg time  |  max time  |%varavg| %total
---------------------------------------------------------------
Pair    | 1171.1     | 1171.1     | 1171.1     |   0.0 | 99.68
Neigh   | 0.31026    | 0.31026    | 0.31026    |   0.0 |  0.03
Comm    | 0.095069   | 0.095069   | 0.095069   |   0.0 |  0.01
Output  | 0.14423    | 0.14423    | 0.14423    |   0.0 |  0.01
Modify  | 2.6826     | 2.6826     | 2.6826     |   0.0 |  0.23
Other   |            | 0.5458     |            |       |  0.05

Nlocal:            700 ave         700 max         700 min
Histogram: 1 0 0 0 0 0 0 0 0 0
Nghost:              0 ave           0 max           0 min
Histogram: 1 0 0 0 0 0 0 0 0 0
Neighs:              0 ave           0 max           0 min
Histogram: 1 0 0 0 0 0 0 0 0 0
FullNghs:       111902 ave      111902 max      111902 min
Histogram: 1 0 0 0 0 0 0 0 0 0

Total # of neighbors = 111902
Ave neighs/atom = 159.86
Neighbor list builds = 280
Dangerous builds = 0
Total wall time: 0:19:48
