ITEM: TIMESTEP
0
ITEM: NUMBER OF ATOMS
528
ITEM: BOX BOUNDS pp pp pp
-4.0000000000000000e+01 4.0000000000000000e+01
-1.5000000000000000e+01 1.5000000000000000e+01
-1.5000000000000000e+01 1.5000000000000000e+01
ITEM: ATOMS id type xs ys zs
40 1 0.180258 0.234614 0.233373
41 2 0.188984 0.219219 0.217892
593 2 0.233993 0.209123 0.0583593
592 1 0.225988 0.228843 0.0715284
175 1 0.249677 0.247319 0.169531
128 2 0.330062 0.000417514 0.0837235
448 1 0.28194 0.135148 0.226663
449 2 0.293424 0.142371 0.221366
450 2 0.276085 0.147853 0.201907
517 1 0.343832 0.144407 0.0348465
518 2 0.355643 0.149134 0.0367786
519 2 0.33904 0.169273 0.0502209
145 1 0.472809 0.206478 0.176776
146 2 0.483439 0.195518 0.167055
147 2 0.474964 0.236496 0.185939
496 1 0.701009 0.183076 0.142231
497 2 0.709816 0.179467 0.120937
498 2 0.701886 0.15748 0.161136
416 2 0.766677 0.00164519 0.126635
77 2 0.839548 0.00782963 0.238835
78 2 0.823578 0.023137 0.216506
373 1 0.826998 0.225459 0.0824221
374 2 0.830911 0.226479 0.112557
375 2 0.819138 0.201406 0.0820241
418 1 0.897927 0.133795 0.0915614
419 2 0.903753 0.161297 0.0870528
420 2 0.891866 0.138099 0.118732
169 1 0.947313 0.245082 0.222295
73 1 0.0309638 0.430155 0.104417
74 2 0.0426692 0.42484 0.100488
75 2 0.0299605 0.461942 0.105118
470 2 0.00838973 0.43494 0.226851
594 2 0.229581 0.257995 0.0627874
176 2 0.243806 0.258324 0.195062
177 2 0.243591 0.258863 0.144605
343 1 0.299879 0.335159 0.210114
344 2 0.308871 0.322717 0.193137
345 2 0.304305 0.338187 0.239602
445 1 0.583457 0.414445 0.21865
446 2 0.572739 0.402038 0.211784
447 2 0.581028 0.439982 0.236647
505 1 0.580455 0.425449 0.0371031
506 2 0.587834 0.402675 0.0265146
507 2 0.581404 0.42407 0.0688793
272 2 0.661763 0.300333 0.238034
570 2 0.744782 0.351816 0.234278
569 2 0.759664 0.32065 0.234778
568 1 0.747699 0.320874 0.234613
465 2 0.815819 0.494593 0.246121
412 1 0.843227 0.399707 0.196693
413 2 0.852998 0.38957 0.212069
414 2 0.846522 0.427373 0.183446
170 2 0.957935 0.259663 0.220532
171 2 0.939502 0.268676 0.227541
523 1 0.920925 0.289407 0.0972835
524 2 0.93258 0.296335 0.0992924
525 2 0.917527 0.30138 0.0691309
376 1 0.0641317 0.68123 0.162091
377 2 0.0712085 0.657793 0.172702
378 2 0.0712846 0.69927 0.143959
157 1 0.149927 0.57021 0.0777961
158 2 0.159349 0.582297 0.0622831
159 2 0.142066 0.594234 0.0790154
181 1 0.128655 0.736538 0.237881
255 2 0.269036 0.558607 0.0328096
358 1 0.265915 0.647269 0.220177
359 2 0.272144 0.622435 0.208978
360 2 0.256727 0.650275 0.199961
253 1 0.279434 0.5559 0.0172562
254 2 0.281831 0.585463 0.00709758
361 1 0.297678 0.553147 0.216485
362 2 0.306622 0.569634 0.229801
363 2 0.287751 0.565983 0.228838
222 2 0.542799 0.592209 0.193804
457 1 0.522951 0.620643 0.229938
459 2 0.517337 0.621663 0.20178
484 1 0.543003 0.708362 0.159019
486 2 0.538675 0.734836 0.145459
220 1 0.551882 0.576926 0.179738
221 2 0.561697 0.589773 0.192699
229 1 0.598689 0.577162 0.0118434
230 2 0.609417 0.590723 0.00787044
322 1 0.565442 0.558297 0.050642
323 2 0.576378 0.548685 0.0419741
324 2 0.565235 0.589436 0.0437064
400 1 0.626644 0.674936 0.217031
401 2 0.635948 0.663981 0.233837
402 2 0.63101 0.699898 0.200927
485 2 0.55187 0.699129 0.139688
481 1 0.73631 0.56754 0.223423
483 2 0.729697 0.550658 0.202879
493 1 0.888463 0.569369 0.146702
494 2 0.898668 0.575925 0.162015
495 2 0.882748 0.597358 0.145131
490 1 0.925989 0.743615 0.18277
492 2 0.92661 0.720761 0.204973
190 1 0.0609843 0.899501 0.136805
191 2 0.0673308 0.878313 0.11999
192 2 0.0501682 0.899334 0.123164
183 2 0.119998 0.75557 0.226793
313 1 0.265545 0.77812 0.24378
127 1 0.329781 0.978396 0.106801
129 2 0.330096 0.950525 0.0912921
205 1 0.328669 0.886302 0.0386248
206 2 0.316947 0.891557 0.0422811
207 2 0.329864 0.878008 0.00798
314 2 0.277121 0.771523 0.239148
4 1 0.518189 0.820629 0.033466
5 2 0.519492 0.789329 0.0283369
6 2 0.510399 0.830128 0.0111882
49 1 0.532317 0.898155 0.224846
50 2 0.540196 0.921758 0.22927
51 2 0.523414 0.904671 0.245141
415 1 0.763011 0.981797 0.103646
417 2 0.753294 0.967664 0.115764
520 1 0.738251 0.791124 0.152885
521 2 0.749872 0.78714 0.159361
522 2 0.736438 0.822515 0.155926
76 1 0.82833 0.998663 0.232585
424 1 0.91313 0.904275 0.154278
425 2 0.924195 0.902083 0.166219
426 2 0.910076 0.934815 0.158637
451 1 0.948569 0.808701 0.000736516
491 2 0.924057 0.770437 0.199266
139 1 0.176624 0.030072 0.403451
140 2 0.174654 0.0352151 0.434499
487 1 0.143485 0.0357898 0.483736
488 2 0.139318 0.0656791 0.484843
489 2 0.1415 0.0263944 0.453707
42 2 0.183233 0.232196 0.264184
141 2 0.184924 0.00709996 0.402781
235 1 0.271723 0.0216997 0.34622
292 1 0.208115 0.140126 0.493892
293 2 0.200464 0.159744 0.479163
294 2 0.202458 0.112021 0.494682
367 1 0.234691 0.130899 0.273625
368 2 0.229084 0.109581 0.255186
369 2 0.244518 0.138712 0.257185
236 2 0.280396 0.0147129 0.325379
237 2 0.273422 0.0525106 0.353163
35 2 0.42524 0.238064 0.371763
397 1 0.389782 0.0278785 0.348537
398 2 0.397311 0.0105627 0.330788
399 2 0.395262 0.0560319 0.351983
121 1 0.489777 0.239028 0.342707
122 2 0.497864 0.215638 0.345129
406 1 0.467973 0.143008 0.285988
407 2 0.479304 0.152014 0.281091
408 2 0.461444 0.168186 0.276991
53 2 0.635212 0.232372 0.331465
383 2 0.63207 0.00255384 0.402858
403 1 0.574636 0.193956 0.357781
404 2 0.585156 0.191828 0.37283
405 2 0.567912 0.212227 0.376827
9 2 0.726776 0.113915 0.330518
172 1 0.644738 0.00288765 0.279836
173 2 0.656621 0.00349697 0.276145
174 2 0.641394 0.0334315 0.277473
7 1 0.728619 0.0824429 0.328679
8 2 0.74048 0.0794437 0.32576
28 1 0.790499 0.209527 0.460988
29 2 0.796364 0.199389 0.486885
30 2 0.795205 0.238197 0.454776
209 2 0.777166 0.0215912 0.314686
210 2 0.785096 0.00607531 0.271574
67 1 0.843691 0.0764548 0.455281
68 2 0.843612 0.104103 0.439358
69 2 0.847365 0.0549509 0.433842
469 1 0.0105609 0.430689 0.257938
471 2 0.0223477 0.435291 0.260924
118 1 0.230194 0.263396 0.360857
119 2 0.239887 0.267642 0.379077
120 2 0.22396 0.290432 0.364132
34 1 0.415695 0.257011 0.375097
36 2 0.418571 0.283586 0.359193
352 1 0.399787 0.359591 0.254791
353 2 0.392784 0.359029 0.280655
354 2 0.40824 0.337801 0.260725
508 1 0.436416 0.488673 0.368372
509 2 0.447156 0.494467 0.355558
510 2 0.430426 0.473115 0.345551
123 2 0.493556 0.261349 0.363158
166 1 0.544239 0.375545 0.421871
168 2 0.5361 0.354643 0.432367
54 2 0.636138 0.280342 0.315998
86 2 0.587124 0.485671 0.285727
167 2 0.546379 0.394424 0.446952
52 1 0.642379 0.25792 0.331436
163 1 0.70882 0.31144 0.324046
164 2 0.71699 0.333573 0.33135
165 2 0.698544 0.327628 0.321787
271 1 0.659483 0.306072 0.268826
273 2 0.667787 0.289368 0.284599
466 1 0.723366 0.457812 0.28637
468 2 0.721996 0.489457 0.288179
109 1 0.781459 0.413733 0.408613
110 2 0.789406 0.396224 0.424811
111 2 0.776977 0.433882 0.430274
439 1 0.769423 0.373926 0.279305
440 2 0.780129 0.363518 0.269571
441 2 0.771675 0.40211 0.293004
467 2 0.73505 0.453059 0.291334
217 1 0.832163 0.393554 0.30421
218 2 0.829062 0.362829 0.301839
219 2 0.821755 0.409276 0.304922
463 1 0.822454 0.474891 0.263923
464 2 0.832209 0.491873 0.271201
151 1 0.0578696 0.583721 0.4473
152 2 0.0632257 0.555914 0.440916
153 2 0.0664133 0.605617 0.44288
182 2 0.126872 0.735735 0.269421
539 2 0.1182 0.638534 0.484831
388 1 0.421603 0.628838 0.357925
389 2 0.414887 0.603288 0.351254
390 2 0.426311 0.637357 0.329857
223 1 0.456638 0.602964 0.431467
224 2 0.461032 0.573634 0.435995
225 2 0.463633 0.621851 0.449171
394 1 0.542059 0.529595 0.438315
396 2 0.538859 0.560339 0.438505
458 2 0.514371 0.613219 0.250899
472 1 0.535675 0.62734 0.304805
474 2 0.532722 0.658229 0.306177
85 1 0.587347 0.517558 0.284775
87 2 0.593448 0.526037 0.31088
346 1 0.558154 0.532672 0.337876
347 2 0.569828 0.526143 0.340366
348 2 0.557649 0.564467 0.335574
395 2 0.554021 0.530145 0.438772
473 2 0.54764 0.627222 0.30458
94 1 0.65818 0.730185 0.307042
95 2 0.669234 0.739267 0.315198
482 2 0.731763 0.560458 0.252074
331 1 0.982567 0.659768 0.423948
332 2 0.993548 0.653961 0.435205
333 2 0.977409 0.677825 0.446371
260 2 0.0259405 0.862046 0.494471
379 1 0.0814954 0.754794 0.356347
380 2 0.0806725 0.755535 0.324524
381 2 0.0702067 0.757712 0.366511
573 2 0.175208 0.924934 0.314452
265 1 0.172757 0.813413 0.309745
267 2 0.169581 0.844174 0.309553
31 1 0.237366 0.811118 0.402421
32 2 0.246895 0.797442 0.388812
33 2 0.239141 0.842433 0.398547
572 2 0.188636 0.892649 0.329355
571 1 0.185384 0.911164 0.304859
266 2 0.184721 0.8139 0.309879
315 2 0.265338 0.809209 0.250935
334 1 0.212078 0.934768 0.458798
335 2 0.210328 0.92258 0.487913
336 2 0.202337 0.95245 0.453269
475 1 0.292584 0.821323 0.33648
476 2 0.291404 0.806589 0.308354
477 2 0.281527 0.82168 0.348667
537 2 0.482669 0.888039 0.330646
536 2 0.496954 0.880422 0.362857
535 1 0.494575 0.88514 0.331946
382 1 0.634454 0.982161 0.426559
96 2 0.651888 0.75731 0.306185
384 2 0.646237 0.984987 0.431332
100 1 0.81024 0.83434 0.358586
101 2 0.812831 0.848123 0.38652
102 2 0.799651 0.846695 0.350338
208 1 0.784628 0.999662 0.302805
549 2 0.983436 0.842889 0.371574
548 2 0.980698 0.871708 0.330798
547 1 0.985514 0.872103 0.360003
10 1 0.05218 0.245419 0.696492
12 2 0.0515001 0.245252 0.664637
588 2 0.00369985 0.182121 0.579475
587 2 0.00635067 0.15678 0.622538
586 1 0.0110579 0.179944 0.604541
154 1 0.16763 0.0262818 0.59335
155 2 0.179222 0.0204328 0.598662
156 2 0.16739 0.0559974 0.581747
115 1 0.192561 0.246723 0.679776
460 1 0.188485 0.111107 0.684143
461 2 0.194769 0.137616 0.67827
462 2 0.193654 0.0887513 0.666026
258 2 0.277771 0.0789651 0.735163
316 1 0.360432 0.162996 0.553181
317 2 0.350772 0.180754 0.559437
337 1 0.316078 0.0988502 0.709632
338 2 0.327683 0.099971 0.701942
339 2 0.312992 0.129344 0.714155
318 2 0.368023 0.183047 0.53882
546 2 0.478465 0.112907 0.610288
545 2 0.475192 0.145975 0.647395
544 1 0.475589 0.143418 0.615608
436 1 0.67789 0.23364 0.746964
64 1 0.812535 0.0995364 0.674855
66 2 0.817178 0.121235 0.694702
391 1 0.786103 0.0646322 0.554331
392 2 0.789121 0.0452528 0.530295
393 2 0.774175 0.062667 0.555886
65 2 0.820697 0.0965149 0.65172
202 1 0.874446 0.16908 0.673081
203 2 0.872637 0.142047 0.689328
204 2 0.879884 0.18844 0.693889
288 2 0.904879 0.00537036 0.712012
286 1 0.912629 0.013687 0.689169
11 2 0.0445279 0.268215 0.705546
116 2 0.204033 0.254228 0.684864
117 2 0.19105 0.250449 0.648345
430 1 0.255713 0.303108 0.536644
431 2 0.267069 0.313162 0.536778
432 2 0.252119 0.306994 0.50646
193 1 0.441552 0.454788 0.647953
194 2 0.443864 0.483407 0.635267
195 2 0.451772 0.446319 0.662217
582 2 0.579423 0.478528 0.512736
581 2 0.592717 0.456504 0.541104
580 1 0.587034 0.453913 0.513145
211 1 0.697914 0.33798 0.515943
212 2 0.707075 0.323507 0.530497
213 2 0.702214 0.366553 0.50757
262 1 0.87572 0.255054 0.638737
263 2 0.884383 0.276724 0.642578
264 2 0.869025 0.266532 0.614915
532 1 0.820109 0.300527 0.749997
112 1 0.916455 0.42971 0.595476
113 2 0.928417 0.42906 0.595216
114 2 0.91369 0.460749 0.595029
239 2 0.961328 0.362238 0.732333
310 1 0.934329 0.355522 0.676627
311 2 0.946 0.349376 0.680035
312 2 0.933906 0.38581 0.666658
103 1 0.177286 0.63752 0.606465
104 2 0.17076 0.650082 0.630074
105 2 0.180601 0.608881 0.617407
567 2 0.170841 0.609576 0.544054
566 2 0.180673 0.568421 0.531198
565 1 0.169966 0.582242 0.527761
540 2 0.109288 0.654914 0.526225
538 1 0.112123 0.628296 0.510339
543 2 0.299484 0.711624 0.723442
542 2 0.305574 0.664782 0.714032
541 1 0.296639 0.684998 0.707583
531 2 0.329514 0.660486 0.565801
530 2 0.344521 0.62979 0.564102
529 1 0.332613 0.629701 0.567221
456 2 0.354072 0.681605 0.74636
226 1 0.366913 0.595447 0.702075
227 2 0.378319 0.59324 0.692697
228 2 0.364224 0.626361 0.698765
130 1 0.563558 0.68737 0.629192
131 2 0.560624 0.717521 0.636101
132 2 0.56007 0.683425 0.598928
555 2 0.591927 0.596942 0.720286
554 2 0.597999 0.640714 0.701095
553 1 0.598376 0.609177 0.696358
349 1 0.732469 0.749758 0.548391
579 2 0.905907 0.582103 0.567591
578 2 0.901004 0.609732 0.607743
577 1 0.896873 0.599138 0.579735
19 1 0.916289 0.713686 0.704369
20 2 0.914398 0.716687 0.735732
21 2 0.927743 0.704764 0.701996
58 1 0.914179 0.557784 0.685982
59 2 0.922092 0.563695 0.709173
60 2 0.91553 0.582004 0.665526
280 1 0.977125 0.708474 0.545706
281 2 0.978752 0.700614 0.576324
282 2 0.980521 0.739017 0.543928
421 1 0.992301 0.622966 0.578879
422 2 0.989817 0.643463 0.555342
423 2 0.981597 0.614125 0.590061
259 1 0.030814 0.842443 0.516031
261 2 0.0281932 0.855746 0.544177
136 1 0.30614 0.8164 0.537227
137 2 0.317667 0.813842 0.545385
138 2 0.306295 0.82008 0.505536
514 1 0.28656 0.975348 0.575566
515 2 0.297707 0.963747 0.575635
516 2 0.283392 0.97552 0.544799
97 1 0.393682 0.878822 0.602934
98 2 0.405271 0.883341 0.609456
99 2 0.388738 0.907685 0.60627
564 2 0.405789 0.770994 0.638846
563 2 0.416871 0.783187 0.67789
562 1 0.406599 0.791066 0.663554
283 1 0.443344 0.950944 0.684011
285 2 0.442681 0.981858 0.676318
284 2 0.454647 0.946802 0.693619
61 1 0.636349 0.885281 0.622093
600 2 0.723024 0.822423 0.722638
62 2 0.644372 0.890173 0.645254
63 2 0.640585 0.860191 0.605938
289 1 0.691634 0.898563 0.670573
290 2 0.696078 0.923779 0.68612
291 2 0.682309 0.910166 0.654292
598 1 0.73324 0.812982 0.736303
350 2 0.736818 0.767809 0.524777
351 2 0.732783 0.768675 0.574072
22 1 0.939151 0.814588 0.600907
23 2 0.942798 0.814891 0.631294
24 2 0.948608 0.82495 0.584333
287 2 0.919746 0.988248 0.685905
385 1 0.0113569 0.0571424 0.809827
386 2 0.0149316 0.0834238 0.79445
387 2 0.00888642 0.0671266 0.839406
160 1 0.339733 0.207164 0.849664
161 2 0.335431 0.180099 0.862071
162 2 0.350863 0.19983 0.840538
256 1 0.284349 0.0701953 0.760332
257 2 0.292893 0.0924422 0.762347
304 1 0.321245 0.163139 0.986088
305 2 0.326421 0.191415 0.991382
306 2 0.309831 0.170182 0.97961
526 1 0.394709 0.0179156 0.862226
527 2 0.405058 0.0111608 0.876743
528 2 0.394905 0.0495863 0.858388
268 1 0.55805 0.172389 0.875693
269 2 0.562343 0.199362 0.863067
270 2 0.56018 0.150144 0.853536
325 1 0.615488 0.0185868 0.95202
326 2 0.625035 0.0377608 0.953525
327 2 0.609421 0.0246521 0.978843
437 2 0.670517 0.235082 0.772053
438 2 0.688818 0.237364 0.759412
184 1 0.783849 0.00182925 0.901053
185 2 0.792553 0.0166171 0.917198
186 2 0.786172 0.0082835 0.870426
560 2 0.806225 0.0830904 0.924068
559 1 0.815675 0.0780261 0.94297
278 2 0.735902 0.025386 0.935325
591 2 0.871861 0.145217 0.879891
590 2 0.861955 0.160184 0.839582
589 1 0.861724 0.159934 0.871482
561 2 0.825131 0.085182 0.924774
319 1 0.846334 0.0514242 0.880943
320 2 0.857907 0.0581377 0.885475
321 2 0.841308 0.0795807 0.874193
576 2 0.973252 0.131735 0.757607
575 2 0.988557 0.126909 0.786891
574 1 0.976622 0.124717 0.787407
499 1 0.0753866 0.382447 0.851905
500 2 0.0830142 0.362943 0.836942
501 2 0.0822635 0.399467 0.871706
124 1 0.177804 0.33553 0.886109
126 2 0.180918 0.365644 0.879614
125 2 0.187703 0.318543 0.880392
142 1 0.200562 0.429196 0.83937
143 2 0.210433 0.418103 0.853587
144 2 0.192933 0.434647 0.863337
597 2 0.28336 0.43916 0.818754
596 2 0.274205 0.396246 0.808314
595 1 0.278947 0.422082 0.794507
558 2 0.476125 0.443819 0.914221
557 2 0.478445 0.474201 0.954036
556 1 0.470079 0.462473 0.934472
307 1 0.537855 0.499535 0.786067
309 2 0.543012 0.488502 0.81266
295 1 0.650322 0.347168 0.879549
296 2 0.662278 0.348086 0.878753
297 2 0.646994 0.37781 0.880133
409 1 0.668421 0.373744 0.972105
410 2 0.676907 0.383307 0.992465
411 2 0.65855 0.389045 0.981639
199 1 0.777866 0.447608 0.839406
200 2 0.789488 0.455133 0.840357
201 2 0.772281 0.475541 0.835421
534 2 0.817807 0.310824 0.779566
133 1 0.823149 0.492751 0.858605
533 2 0.82147 0.26898 0.753105
25 1 0.92235 0.377847 0.839219
26 2 0.920697 0.404815 0.822746
27 2 0.933532 0.368949 0.832166
88 1 0.980304 0.338574 0.960262
89 2 0.991199 0.343352 0.947974
90 2 0.97643 0.367765 0.967956
238 1 0.958019 0.365579 0.762812
240 2 0.968248 0.363834 0.779274
250 1 0.1762 0.670607 0.905194
251 2 0.18124 0.641709 0.906709
252 2 0.177983 0.680074 0.875098
502 1 0.104044 0.613646 0.763101
503 2 0.0997162 0.62559 0.790343
504 2 0.0967732 0.589262 0.756209
454 1 0.347181 0.663412 0.765053
455 2 0.354122 0.638586 0.772741
308 2 0.529092 0.51861 0.796468
231 2 0.594988 0.57049 0.982244
355 1 0.62893 0.542392 0.843708
357 2 0.623057 0.570004 0.846922
356 2 0.640174 0.550945 0.836941
134 2 0.82641 0.511697 0.834451
135 2 0.830734 0.500046 0.882178
585 2 0.960622 0.656727 0.80513
584 2 0.977162 0.637814 0.789527
583 1 0.96862 0.633873 0.811519
13 1 0.0433046 0.894443 0.84912
14 2 0.0551322 0.889733 0.850147
15 2 0.0420102 0.926064 0.851617
340 1 0.0151556 0.804435 0.857367
341 2 0.0267183 0.811873 0.853906
342 2 0.0119883 0.817985 0.884991
370 1 0.1709 0.955974 0.923784
371 2 0.170166 0.957579 0.95559
247 1 0.212228 0.824327 0.998536
248 2 0.223706 0.833278 0.997564
249 2 0.206084 0.851662 0.996973
372 2 0.182624 0.953813 0.917791
37 1 0.344655 0.841291 0.819679
38 2 0.352902 0.857631 0.836029
39 2 0.338233 0.86368 0.804726
511 1 0.335484 0.929415 0.931357
512 2 0.334776 0.959747 0.921639
513 2 0.347148 0.924621 0.936614
427 1 0.376646 0.953208 0.970108
428 2 0.388471 0.949552 0.966897
429 2 0.374925 0.984747 0.968622
178 1 0.695259 0.785753 0.810319
179 2 0.707217 0.786575 0.809721
180 2 0.691961 0.816425 0.810399
552 2 0.664974 0.791292 0.973594
551 2 0.667754 0.762743 0.932649
550 1 0.659242 0.772476 0.95285
279 2 0.720196 0.997399 0.932329
599 2 0.729773 0.796045 0.761713
277 1 0.731751 0.995908 0.940474
478 1 0.811779 0.983961 0.763818
479 2 0.802083 0.968208 0.753752
480 2 0.81602 0.966257 0.787833
452 2 0.952166 0.781757 0.986591
453 2 0.955527 0.831394 0.988136
ITEM: TIMESTEP
1000
ITEM: NUMBER OF ATOMS
528
ITEM: BOX BOUNDS pp pp pp
-3.9960376211550418e+01 3.9960376211550418e+01
-1.4985141079331447e+01 1.4985141079331447e+01
-1.4985141079331447e+01 1.4985141079331447e+01
ITEM: ATOMS id type xs ys zs
40 1 0.181135 0.233844 0.235086
41 2 0.187331 0.217224 0.213388
593 2 0.230429 0.203816 0.0688214
592 1 0.228668 0.233469 0.0797153
175 1 0.248955 0.238472 0.163993
128 2 0.341257 0.96484 0.101275
448 1 0.278422 0.138541 0.228242
449 2 0.288501 0.128805 0.214002
450 2 0.274497 0.162582 0.210006
517 1 0.364041 0.13068 0.0774614
518 2 0.353085 0.117872 0.0790396
519 2 0.370235 0.110673 0.0588363
145 1 0.473196 0.203867 0.18409
146 2 0.471331 0.197777 0.153134
147 2 0.475543 0.235167 0.185188
496 1 0.701019 0.180458 0.141262
497 2 0.704829 0.209561 0.132905
498 2 0.701186 0.180686 0.173196
416 2 0.761051 0.00355918 0.12775
77 2 0.821512 0.977786 0.240538
78 2 0.827996 0.00361119 0.200717
373 1 0.827317 0.224924 0.081094
374 2 0.82395 0.244663 0.104543
375 2 0.820419 0.199092 0.0848908
418 1 0.898204 0.135506 0.0928647
419 2 0.907312 0.15153 0.079696
420 2 0.893121 0.156467 0.112787
169 1 0.947326 0.24535 0.221879
73 1 0.0308828 0.432591 0.108544
74 2 0.0370384 0.40797 0.0965277
75 2 0.0322793 0.45594 0.0870728
470 2 0.0144279 0.426861 0.224461
594 2 0.216872 0.238176 0.0768199
176 2 0.241611 0.260475 0.176335
177 2 0.249084 0.244723 0.132675
343 1 0.300571 0.333486 0.212423
344 2 0.302792 0.343003 0.182516
345 2 0.30445 0.357561 0.230684
445 1 0.581951 0.421991 0.216636
446 2 0.583757 0.406513 0.244155
447 2 0.579023 0.399065 0.195815
505 1 0.581442 0.424033 0.0361816
506 2 0.577051 0.446921 0.0551305
507 2 0.575704 0.428005 0.00843075
272 2 0.663866 0.336828 0.254304
570 2 0.741717 0.306685 0.198733
569 2 0.751786 0.336614 0.229308
568 1 0.743229 0.314268 0.229495
465 2 0.825092 0.467105 0.241394
412 1 0.84298 0.395043 0.198505
413 2 0.843424 0.390108 0.230038
414 2 0.851532 0.416696 0.192927
170 2 0.951957 0.271321 0.235774
171 2 0.94115 0.256663 0.196964
523 1 0.921196 0.287134 0.0978626
524 2 0.929345 0.272695 0.0794416
525 2 0.916677 0.310251 0.0794115
376 1 0.064843 0.680565 0.161223
377 2 0.0660902 0.672699 0.191998
378 2 0.0749952 0.695842 0.153892
157 1 0.149489 0.571408 0.0758972
158 2 0.160321 0.579352 0.064829
159 2 0.147606 0.591427 0.100271
181 1 0.127483 0.738359 0.237544
255 2 0.276093 0.55137 0.0455555
358 1 0.266357 0.646251 0.217105
359 2 0.277336 0.637892 0.226756
360 2 0.25897 0.629949 0.236241
253 1 0.278851 0.555753 0.0147864
254 2 0.285434 0.582433 0.0144712
361 1 0.296057 0.557727 0.217485
362 2 0.307454 0.566257 0.212639
363 2 0.296528 0.537113 0.241848
222 2 0.541379 0.578482 0.196527
457 1 0.517027 0.611239 0.190807
459 2 0.528661 0.618046 0.194162
484 1 0.541891 0.709726 0.158592
486 2 0.546739 0.737649 0.167153
220 1 0.55201 0.583309 0.182636
221 2 0.558891 0.559485 0.193397
229 1 0.597589 0.575863 0.0122401
230 2 0.60668 0.596214 0.0165023
322 1 0.566124 0.557558 0.0470206
323 2 0.576941 0.569074 0.0395818
324 2 0.566883 0.55033 0.0780643
400 1 0.628228 0.676288 0.221086
401 2 0.636783 0.684796 0.241754
402 2 0.630753 0.692698 0.194525
485 2 0.55049 0.69508 0.141867
481 1 0.735647 0.56654 0.22583
483 2 0.73026 0.545025 0.207101
493 1 0.887944 0.571362 0.149203
494 2 0.898964 0.558871 0.148461
495 2 0.887585 0.591074 0.124092
490 1 0.925784 0.741536 0.185031
492 2 0.927227 0.765062 0.206286
190 1 0.0610874 0.899283 0.136755
191 2 0.0668414 0.881888 0.1148
192 2 0.0495103 0.896433 0.129085
183 2 0.128424 0.757275 0.263156
313 1 0.268402 0.784033 0.248874
127 1 0.329458 0.968859 0.0975526
129 2 0.32627 0.946417 0.0764782
205 1 0.328334 0.903765 0.034539
206 2 0.3306 0.872431 0.0358364
207 2 0.32951 0.911253 0.00364964
314 2 0.265872 0.754032 0.257501
4 1 0.518636 0.818725 0.0319548
5 2 0.514145 0.789537 0.0269899
6 2 0.509457 0.838475 0.0263962
49 1 0.531473 0.897671 0.228637
50 2 0.531736 0.926117 0.243142
51 2 0.521541 0.883682 0.239723
415 1 0.762826 0.980044 0.106663
417 2 0.760273 0.993179 0.0783585
520 1 0.73822 0.791975 0.154382
521 2 0.746998 0.772492 0.144759
522 2 0.741001 0.820305 0.141636
76 1 0.828202 0.00307492 0.232646
424 1 0.914098 0.905825 0.157222
425 2 0.918085 0.885524 0.134976
426 2 0.903559 0.916017 0.145985
451 1 0.94848 0.809496 0.998873
491 2 0.919806 0.755078 0.160896
139 1 0.174086 0.0282088 0.408721
140 2 0.163446 0.0397823 0.417725
487 1 0.146334 0.0387833 0.471112
488 2 0.156793 0.0236479 0.467498
489 2 0.138144 0.015481 0.470912
42 2 0.187197 0.229741 0.262324
141 2 0.181977 0.042921 0.427715
235 1 0.272201 0.0214184 0.346086
292 1 0.206664 0.140363 0.491422
293 2 0.213957 0.165117 0.496809
294 2 0.211946 0.115762 0.506134
367 1 0.236553 0.130406 0.270351
368 2 0.235475 0.100331 0.259994
369 2 0.24158 0.146036 0.245936
236 2 0.279952 0.0251641 0.322027
237 2 0.263019 0.0405322 0.338657
35 2 0.416445 0.227139 0.374279
397 1 0.390164 0.0285854 0.349243
398 2 0.392198 0.0111041 0.32307
399 2 0.397212 0.0541804 0.345814
121 1 0.490442 0.236631 0.340505
122 2 0.485533 0.233317 0.369448
406 1 0.468047 0.146507 0.282088
407 2 0.466255 0.173012 0.299254
408 2 0.471718 0.157082 0.253585
53 2 0.63186 0.275298 0.329381
383 2 0.633873 0.977329 0.392028
403 1 0.574711 0.194716 0.358796
404 2 0.579763 0.184695 0.385965
405 2 0.573353 0.226196 0.362789
9 2 0.717432 0.0781866 0.329892
172 1 0.645394 0.00508272 0.284936
173 2 0.653854 0.996752 0.26392
174 2 0.636511 0.0168318 0.26702
7 1 0.728865 0.087211 0.326871
8 2 0.733161 0.0868298 0.356681
28 1 0.79136 0.208247 0.460638
29 2 0.784229 0.183594 0.467755
30 2 0.793079 0.223135 0.48852
209 2 0.788587 0.0132007 0.276896
210 2 0.794678 0.99794 0.322227
67 1 0.843145 0.0753637 0.454646
68 2 0.842022 0.10517 0.443571
69 2 0.851217 0.0617788 0.435355
469 1 0.0104585 0.429741 0.254456
471 2 0.0201783 0.437619 0.271373
118 1 0.228869 0.265873 0.361491
119 2 0.237879 0.247884 0.350578
120 2 0.233078 0.295753 0.360388
34 1 0.416521 0.258993 0.371964
36 2 0.422078 0.268854 0.398482
352 1 0.400174 0.359807 0.257537
353 2 0.392734 0.348706 0.279969
354 2 0.404628 0.333601 0.243673
508 1 0.437057 0.488586 0.367371
509 2 0.43598 0.519155 0.358577
510 2 0.429116 0.473012 0.349231
123 2 0.495347 0.265765 0.340921
166 1 0.5439 0.374304 0.425241
168 2 0.548444 0.403406 0.430364
54 2 0.646148 0.248638 0.309655
86 2 0.595677 0.49458 0.304026
167 2 0.548632 0.365169 0.397359
52 1 0.639556 0.251777 0.336135
163 1 0.706993 0.3148 0.320685
164 2 0.716484 0.298311 0.310312
165 2 0.711532 0.33582 0.341462
271 1 0.66291 0.306853 0.26503
273 2 0.674138 0.298326 0.272162
466 1 0.724076 0.453412 0.286248
468 2 0.727278 0.45384 0.317021
109 1 0.781353 0.412031 0.403366
110 2 0.792896 0.415762 0.41102
111 2 0.775719 0.435545 0.418905
439 1 0.774167 0.386147 0.289826
440 2 0.778757 0.414249 0.298795
441 2 0.772737 0.369997 0.317116
467 2 0.726664 0.482727 0.275614
217 1 0.834091 0.389569 0.300639
218 2 0.825688 0.366832 0.29972
219 2 0.828651 0.415581 0.289107
463 1 0.821464 0.482982 0.267363
464 2 0.813898 0.505076 0.256187
151 1 0.0587081 0.585395 0.446303
152 2 0.0603612 0.555759 0.457364
153 2 0.0677271 0.602274 0.45882
182 2 0.136769 0.71833 0.239924
539 2 0.112648 0.5997 0.5185
388 1 0.421523 0.627767 0.357665
389 2 0.410881 0.634851 0.370492
390 2 0.421046 0.639965 0.328175
223 1 0.458537 0.599718 0.430217
224 2 0.447722 0.587209 0.42458
225 2 0.45799 0.609901 0.460453
394 1 0.543721 0.529121 0.440006
396 2 0.531878 0.530347 0.435413
458 2 0.514502 0.619235 0.160628
472 1 0.542463 0.634866 0.338717
474 2 0.536247 0.642871 0.364817
85 1 0.589521 0.513763 0.284467
87 2 0.578407 0.501868 0.2846
346 1 0.556111 0.53227 0.34567
347 2 0.566626 0.518562 0.352449
348 2 0.558597 0.56344 0.343548
395 2 0.548307 0.546661 0.416281
473 2 0.543686 0.662242 0.322594
94 1 0.656419 0.730506 0.301831
95 2 0.666854 0.714947 0.303737
482 2 0.742453 0.583663 0.205894
331 1 0.982358 0.665061 0.430554
332 2 0.988966 0.641621 0.417901
333 2 0.981666 0.657821 0.461606
260 2 0.0286785 0.833771 0.487157
379 1 0.0810529 0.756502 0.354979
380 2 0.0779356 0.738367 0.330037
381 2 0.0772596 0.74016 0.380487
573 2 0.17635 0.917376 0.292327
265 1 0.172567 0.814768 0.308135
267 2 0.164877 0.839239 0.30728
31 1 0.235976 0.814544 0.403218
32 2 0.237114 0.787623 0.386303
33 2 0.246279 0.830122 0.39847
572 2 0.184852 0.926145 0.336606
571 1 0.185533 0.907855 0.310487
266 2 0.183345 0.828286 0.304806
315 2 0.26466 0.786099 0.218606
334 1 0.210945 0.933923 0.461132
335 2 0.211889 0.916493 0.434488
336 2 0.208443 0.91266 0.484011
475 1 0.291081 0.81705 0.333936
476 2 0.289444 0.813759 0.302469
477 2 0.294088 0.847731 0.337743
537 2 0.485195 0.893838 0.318159
536 2 0.494423 0.879488 0.359873
535 1 0.496104 0.88634 0.329002
382 1 0.634485 0.982232 0.423546
96 2 0.653806 0.73818 0.33204
384 2 0.644388 0.999739 0.427569
100 1 0.809124 0.835407 0.360101
101 2 0.819322 0.845143 0.373725
102 2 0.809601 0.847123 0.330417
208 1 0.785084 0.997534 0.303112
549 2 0.986755 0.839047 0.357893
548 2 0.987549 0.883095 0.333257
547 1 0.985116 0.870436 0.361853
10 1 0.0517765 0.244696 0.694628
12 2 0.0439203 0.220674 0.696658
588 2 0.00890642 0.183509 0.574727
587 2 0.0106637 0.151017 0.613118
586 1 0.0111629 0.182138 0.606063
154 1 0.168974 0.0247953 0.595712
155 2 0.177051 0.0428264 0.610909
156 2 0.159627 0.0442362 0.591147
115 1 0.193916 0.240183 0.67867
460 1 0.189237 0.114409 0.682509
461 2 0.178301 0.119116 0.67037
462 2 0.194219 0.143451 0.682921
258 2 0.293894 0.0532243 0.760076
316 1 0.360287 0.165787 0.555516
317 2 0.35099 0.167542 0.535458
337 1 0.316309 0.0993932 0.71193
338 2 0.317723 0.0834338 0.684524
339 2 0.316571 0.130173 0.703435
318 2 0.368981 0.152013 0.538404
546 2 0.484403 0.133418 0.597801
545 2 0.479658 0.164444 0.635601
544 1 0.475255 0.141468 0.616779
436 1 0.677838 0.232602 0.750443
64 1 0.812764 0.102337 0.673781
66 2 0.817773 0.0782133 0.657669
391 1 0.787046 0.0676338 0.553419
392 2 0.79102 0.0530771 0.52704
393 2 0.776794 0.0526655 0.560392
65 2 0.802017 0.106137 0.660203
202 1 0.873507 0.158018 0.675747
203 2 0.865962 0.164437 0.651786
204 2 0.873875 0.126122 0.67705
288 2 0.907688 0.0385631 0.683208
286 1 0.913163 0.0116961 0.69243
11 2 0.0450666 0.271094 0.696367
116 2 0.200954 0.265817 0.681942
117 2 0.186843 0.247182 0.653863
430 1 0.25598 0.302654 0.537276
431 2 0.262264 0.324132 0.553947
432 2 0.251288 0.319302 0.513062
193 1 0.44154 0.455636 0.64857
194 2 0.446621 0.473968 0.6262
195 2 0.450712 0.440361 0.662299
582 2 0.58104 0.475007 0.493878
581 2 0.595998 0.465896 0.523501
580 1 0.585514 0.453517 0.514271
211 1 0.697776 0.339274 0.517345
212 2 0.703623 0.311855 0.522359
213 2 0.705694 0.357837 0.50219
262 1 0.877338 0.267172 0.637834
263 2 0.886832 0.286543 0.63982
264 2 0.868337 0.284046 0.650447
532 1 0.82045 0.301713 0.750429
112 1 0.917853 0.428013 0.60007
113 2 0.910567 0.445236 0.581473
114 2 0.926061 0.448903 0.610298
239 2 0.949926 0.36354 0.757093
310 1 0.93201 0.355507 0.664323
311 2 0.925662 0.377694 0.64879
312 2 0.924001 0.333015 0.671934
103 1 0.177003 0.632394 0.605929
104 2 0.174499 0.657928 0.587942
105 2 0.176531 0.643201 0.635957
567 2 0.172549 0.592303 0.559572
566 2 0.172949 0.609864 0.512221
565 1 0.170049 0.584097 0.529435
540 2 0.115268 0.648259 0.530534
538 1 0.111406 0.629304 0.506981
543 2 0.300942 0.714613 0.716606
542 2 0.309109 0.669337 0.71137
541 1 0.298464 0.683954 0.710571
531 2 0.324031 0.626173 0.585975
530 2 0.331178 0.655438 0.549479
529 1 0.333627 0.629672 0.567187
456 2 0.343051 0.63517 0.77355
226 1 0.36521 0.60292 0.705406
227 2 0.376011 0.614211 0.713339
228 2 0.36363 0.577634 0.724456
130 1 0.564305 0.687141 0.630879
131 2 0.563247 0.718914 0.629275
132 2 0.562314 0.677113 0.601024
555 2 0.592989 0.581523 0.69545
554 2 0.592664 0.627344 0.674206
553 1 0.597586 0.610883 0.698222
349 1 0.732157 0.750803 0.548147
579 2 0.897395 0.598628 0.609346
578 2 0.889392 0.621791 0.569855
577 1 0.89675 0.597767 0.577466
19 1 0.916763 0.707337 0.707816
20 2 0.908268 0.729033 0.701802
21 2 0.9249 0.711831 0.684815
58 1 0.915616 0.563124 0.686063
59 2 0.916222 0.531888 0.679601
60 2 0.925278 0.568929 0.704024
280 1 0.979916 0.702741 0.541006
281 2 0.972456 0.718688 0.560239
282 2 0.980494 0.720549 0.514538
421 1 0.989944 0.62459 0.579555
422 2 0.988349 0.655216 0.571552
423 2 1.00057 0.61689 0.566987
259 1 0.0292771 0.845723 0.516731
261 2 0.0395556 0.834318 0.528509