ITEM: TIMESTEP
0
ITEM: NUMBER OF ATOMS
576
ITEM: BOX BOUNDS pp pp pp
1.6813298824966569e+00 1.8904247829103532e+01
-3.5304513441954359e+00 2.4116029055818959e+01
7.1656219733431392e-01 1.9869015514264422e+01
ITEM: ATOMS id type xs ys zs
377 2 0.156831 0.141039 0.191678
165 1 0.167197 0.0872902 0.163168
421 2 0.198603 0.0817941 0.084313
81 2 0.220891 0.0513401 0.211192
385 2 0.0771202 0.0681724 0.166994
542 1 0.285729 0.0122819 0.223589
410 2 0.0225535 0.177399 0.150447
208 1 0.0963129 0.185248 0.200133
147 1 0.0233984 0.0444014 0.227442
80 2 0.0642341 0.0412983 0.30469
218 1 0.172289 0.0691073 0.00526874
276 2 0.08859 0.0402236 0.00752667
261 2 0.271594 0.196874 0.123701
206 2 0.0747117 0.195855 0.283622
10 1 0.202591 0.234479 0.0998068
97 2 0.137286 0.231786 0.159461
205 2 0.170015 0.210294 0.0259241
508 2 0.296813 0.170201 0.000781209
380 1 0.33452 0.170094 0.0791751
248 2 0.365754 0.038735 0.243749
360 2 0.363643 0.118978 0.110443
327 1 0.437515 0.0511423 0.299214
33 2 0.489033 0.0920295 0.260987
534 1 0.552668 0.1032 0.197127
51 2 0.505629 0.0799289 0.129983
44 2 0.633789 0.0812368 0.219713
280 1 0.422991 0.0760731 0.102031
358 2 0.57125 0.160134 0.175304
294 2 0.387233 0.0302007 0.0677537
509 2 0.607588 0.19754 0.0460658
32 2 0.489504 0.00309498 0.304573
221 2 0.410351 0.202793 0.0876666
390 1 0.595706 0.20904 0.131453
526 2 0.398939 0.224726 0.226184
263 1 0.435047 0.242083 0.149176
409 2 0.526094 0.246099 0.14218
188 2 0.526292 0.241718 0.317627
184 2 0.980736 0.135863 0.0242243
125 2 0.728463 0.0197138 0.270561
119 1 0.711358 0.0775448 0.263138
558 2 0.79114 0.0965249 0.2254
559 1 0.874771 0.123984 0.220151
458 2 0.944436 0.0816327 0.234179
140 2 0.885138 0.148108 0.142417
246 1 0.957052 0.168419 0.0902432
494 2 0.873147 0.164782 0.282509
265 2 0.790073 0.0533013 0.0817278
481 2 0.72121 0.140516 0.0353647
523 1 0.772387 0.0927375 0.0214234
247 2 0.675186 0.231828 0.159692
115 2 0.940101 0.219359 0.0466347
83 1 0.860729 0.224202 0.30796
441 2 0.803414 0.246848 0.248636
571 2 0.948128 0.244149 0.309154
507 1 0.301903 0.30835 0.154981
422 2 0.287191 0.285357 0.229747
301 2 0.247533 0.285363 0.0980307
403 2 0.301999 0.366841 0.162446
349 2 0.0335544 0.337964 0.291894
89 2 0.124058 0.410505 0.31411
499 2 0.198149 0.46612 0.220751
357 2 0.202677 0.483345 0.0745756
46 1 0.245865 0.489077 0.155406
354 1 0.189514 0.451347 0.299675
427 2 0.325655 0.461283 0.162719
20 1 0.347719 0.256421 0.280621
288 2 0.549034 0.337584 0.267584
344 1 0.507461 0.390875 0.273977
424 1 0.582726 0.288593 0.315619
126 2 0.394568 0.300219 0.319847
445 2 0.389795 0.291996 0.135629
41 2 0.664269 0.270704 0.2847
337 2 0.439695 0.401038 0.216913
425 1 0.354861 0.410077 0.184327
473 2 0.571212 0.435935 0.273424
300 1 0.627308 0.463271 0.215158
420 2 0.664329 0.417334 0.175521
310 2 0.72979 0.32074 0.179066
42 2 0.913237 0.308798 0.0153073
37 1 0.720814 0.266306 0.217381
343 1 0.724568 0.377046 0.199531
401 2 0.778812 0.395762 0.259687
544 2 0.708013 0.492002 0.241818
465 2 0.906208 0.404148 0.0593192
462 1 0.897904 0.461395 0.0612961
302 2 0.934781 0.486761 0.128786
211 2 0.804158 0.475076 0.0562465
242 2 0.257833 0.544378 0.171194
331 2 0.157157 0.583916 0.25809
163 1 0.252445 0.583482 0.231873
437 2 0.31858 0.577274 0.293077
76 2 0.000809838 0.564158 0.271268
91 1 0.068606 0.603659 0.264119
332 2 0.0501762 0.636403 0.1955
168 2 0.284838 0.708941 0.285111
518 2 0.272152 0.636226 0.199936
479 1 0.323102 0.677875 0.227099
511 2 0.053888 0.727645 0.151486
546 2 0.574088 0.506933 0.184265
549 2 0.461509 0.561606 0.239421
109 1 0.41062 0.563636 0.312653
164 1 0.534605 0.5582 0.186747
230 2 0.564869 0.597214 0.133448
266 2 0.406964 0.679045 0.193498
291 1 0.474087 0.717159 0.162715
527 2 0.53857 0.690895 0.118976
55 1 0.606032 0.647317 0.101814
144 2 0.504811 0.742073 0.234041
419 2 0.614442 0.655988 0.0158639
148 2 0.648161 0.698722 0.253055
173 1 0.772995 0.508841 0.303236
195 2 0.865989 0.511705 0.287629
451 1 0.748209 0.518452 0.0362662
393 2 0.737807 0.559136 0.0929765
137 1 0.94964 0.528549 0.32292
405 2 0.749477 0.56015 0.3286
406 1 0.99623 0.682165 0.167585
43 2 0.690599 0.662613 0.138802
502 2 0.951725 0.679833 0.0850189
28 1 0.869598 0.683553 0.288708
224 2 0.939288 0.69132 0.23163
469 1 0.717391 0.702264 0.193152
34 2 0.796979 0.696246 0.237634
159 2 0.850791 0.629044 0.319098
415 1 0.0510393 0.782027 0.120454
134 2 0.241525 0.783018 0.0328331
414 2 0.0279814 0.788693 0.0392516
202 2 0.137049 0.805059 0.131242
520 2 0.261576 0.799642 0.29455
556 2 0.292644 0.982687 0.14949
306 2 0.285064 0.827734 0.165257
442 1 0.220025 0.820812 0.097597
475 2 0.105056 0.9439 0.0966775
323 2 0.266957 0.977179 0.289342
439 2 0.204399 0.87114 0.0628766
56 1 0.135324 0.90803 0.0356454
104 2 0.0585351 0.866408 0.261768
2 1 0.0190628 0.956443 0.128713
315 2 0.315289 0.887594 0.27949
199 1 0.31707 0.83383 0.246054
482 2 0.0147034 0.988685 0.200016
338 2 0.306737 0.959068 0.0119428
296 2 0.0679193 0.874273 0.00309011
372 1 0.265352 0.923625 0.330805
167 2 0.440815 0.758565 0.110273
219 1 0.501657 0.796919 0.263738
251 2 0.588708 0.990624 0.0587311
264 1 0.349524 0.977676 0.0799865
57 1 0.466582 0.809207 0.0767092
96 2 0.408201 0.814 0.251774
541 1 0.531013 0.955845 0.275019
283 2 0.558356 0.830317 0.217262
367 2 0.558852 0.817076 0.0889336
365 2 0.42349 0.946788 0.112098
73 1 0.442 0.905269 0.160472
103 2 0.466499 0.920402 0.237591
257 2 0.579058 0.977578 0.205727
238 2 0.432152 0.853865 0.123394
326 1 0.599775 0.85054 0.145913
312 2 0.579735 0.90664 0.130348
190 1 0.612701 0.962125 0.129829
157 2 0.725507 0.757957 0.164471
105 2 0.976755 0.906202 0.14509
278 2 0.986032 0.81431 0.165955
328 2 0.980378 0.98571 0.0665526
253 1 0.788361 0.995665 0.10887
155 1 0.984457 0.864483 0.206996
101 1 0.765857 0.812295 0.159028
95 2 0.820038 0.819646 0.0902386
567 2 0.835094 0.991713 0.181523
189 2 0.69181 0.846784 0.149362
440 2 0.796986 0.827652 0.236188
74 1 0.823867 0.874861 0.282392
522 2 0.708038 0.965552 0.129346
317 1 0.800989 0.980829 0.262673
122 2 0.912277 0.87699 0.257108
14 2 0.777901 0.924966 0.262027
79 2 0.81595 0.965801 0.0359901
289 1 0.828198 0.835104 0.00515453
203 2 0.273678 0.148578 0.418227
407 1 0.0997892 0.040172 0.385074
376 2 0.178626 0.0756942 0.400394
388 1 0.235583 0.101393 0.456798
26 2 0.310036 0.0689338 0.478257
220 2 0.0297114 0.0655567 0.428147
284 2 0.191834 0.110384 0.531758
311 2 0.077046 0.167235 0.521206
426 1 0.147837 0.15076 0.573146
142 2 0.105586 0.132017 0.647619
123 2 0.264337 0.0320853 0.655588
279 2 0.206802 0.196619 0.580016
361 1 0.330681 0.194791 0.407953
521 2 0.302572 0.225625 0.340374
49 2 0.321002 0.221986 0.484405
129 1 0.0236526 0.218979 0.346474
435 1 0.24752 0.239263 0.535543
341 2 0.570459 0.152729 0.359913
321 2 0.40889 0.0643415 0.376967
75 1 0.640499 0.123973 0.399206
1 1 0.395643 0.0465462 0.457865
71 2 0.619651 0.0753674 0.444208
436 2 0.420206 0.180908 0.388586
29 1 0.648102 0.0214444 0.477486
250 2 0.457424 0.0729343 0.50678
146 1 0.49255 0.107622 0.568162
176 2 0.533452 0.154886 0.539432
375 2 0.41656 0.119912 0.618409
114 2 0.564474 0.0840616 0.616497
210 1 0.621495 0.0402287 0.639421
506 1 0.592249 0.192471 0.507733
229 2 0.66112 0.16418 0.46417
510 2 0.651762 0.0203689 0.563757
533 1 0.509708 0.196777 0.373629
45 2 0.543449 0.218394 0.447464
463 2 0.624123 0.230598 0.562218
171 2 0.523101 0.234221 0.658547
501 2 0.701066 0.104809 0.338342
4 2 0.990849 0.179673 0.404574
182 1 0.990404 0.176608 0.490125
68 2 0.732445 0.0103415 0.435885
178 2 0.870376 0.054737 0.432486
111 1 0.945136 0.0833432 0.45086
540 2 0.940475 0.126961 0.501924
452 1 0.823825 0.00441978 0.420506
553 2 0.83056 0.23712 0.387339
547 2 0.958591 0.215501 0.546669
236 1 0.898855 0.249668 0.587508
149 2 0.871909 0.2261 0.664945
36 2 0.267183 0.431447 0.335003
525 1 0.0752415 0.367284 0.351067
292 2 0.134754 0.336022 0.39873
193 2 0.182334 0.262478 0.47959
209 1 0.110652 0.294953 0.453244
158 2 0.0583787 0.257003 0.406171
78 2 0.0663575 0.315166 0.527492
160 2 0.274518 0.282857 0.584356
480 1 0.0312887 0.326272 0.603826
179 2 0.325608 0.360833 0.403502
411 2 0.0332618 0.385335 0.624367
185 2 0.00381755 0.380739 0.408338
170 2 0.161577 0.495719 0.348297
495 2 0.0103917 0.49048 0.35791
299 1 0.294213 0.41509 0.414354
9 2 0.101223 0.474404 0.470535
180 2 0.22418 0.423168 0.469382
254 1 0.176735 0.460257 0.517764
225 2 0.149833 0.437231 0.589746
226 1 0.0825507 0.437308 0.64695
392 2 0.0593329 0.499175 0.655328
200 1 0.337892 0.31777 0.620749
274 2 0.457821 0.381964 0.345295
169 2 0.602886 0.314067 0.392225
21 1 0.409738 0.340014 0.378901
519 2 0.448878 0.317337 0.447405
141 2 0.530577 0.306473 0.560773
183 1 0.466464 0.340765 0.522411
370 1 0.575811 0.268567 0.610668
557 2 0.390096 0.345118 0.56542
348 2 0.655527 0.366057 0.501829
22 2 0.497848 0.395129 0.512163
153 2 0.396927 0.285072 0.664453
31 2 0.628393 0.300662 0.664884
233 2 0.362884 0.448592 0.443023
389 1 0.412033 0.497591 0.439757
54 2 0.493021 0.490367 0.481057
503 2 0.603794 0.444976 0.563867
281 1 0.515109 0.45074 0.541531
161 2 0.460087 0.466453 0.604205
560 1 0.406154 0.499247 0.655058
364 2 0.693475 0.382217 0.637941
235 1 0.676201 0.34035 0.428635
432 2 0.891759 0.317973 0.450802
489 1 0.826809 0.276289 0.450876
449 2 0.742424 0.301446 0.444878
290 1 0.914443 0.374586 0.43816
329 2 0.942773 0.30328 0.604659
58 2 0.830817 0.252784 0.529478
566 2 0.705192 0.378249 0.37187
249 2 0.857118 0.393776 0.37642
172 1 0.77601 0.406579 0.339284
374 2 0.763002 0.462673 0.354002
398 1 0.677308 0.405829 0.560372
6 2 0.902426 0.413672 0.502768
467 2 0.877966 0.474859 0.613489
132 2 0.759752 0.432981 0.541907
181 1 0.845445 0.455428 0.532936
19 1 0.088347 0.504949 0.397981
476 2 0.0836277 0.559037 0.427379
517 2 0.225959 0.509254 0.531276
120 1 0.297062 0.546005 0.539757
548 2 0.042993 0.588079 0.599474
350 2 0.259955 0.60072 0.54422
528 2 0.0698569 0.632073 0.341774
373 2 0.172019 0.74205 0.367941
460 1 0.0810125 0.617494 0.422421
116 2 0.163444 0.639308 0.452176
194 2 0.0155224 0.636843 0.477057
39 1 0.232621 0.650952 0.504128
12 1 0.149067 0.737503 0.575651
69 2 0.0663502 0.713643 0.587235
346 2 0.208045 0.694939 0.556977
564 2 0.019262 0.739835 0.424823
575 2 0.309243 0.669767 0.462037
394 2 0.417402 0.512526 0.354918
133 2 0.357821 0.537499 0.478051
457 2 0.344779 0.532402 0.612048
351 2 0.592125 0.596965 0.602782
131 2 0.440087 0.603322 0.367033
412 2 0.563979 0.649763 0.348951
352 1 0.639212 0.684009 0.335327
536 2 0.53075 0.635872 0.487573
488 1 0.494562 0.645679 0.404034
399 1 0.368614 0.713469 0.450404
60 2 0.442819 0.69296 0.410381
431 2 0.395742 0.739014 0.520499
565 2 0.633175 0.734081 0.380076
429 2 0.489619 0.663577 0.61805
379 1 0.559251 0.64788 0.569102
355 2 0.628526 0.68531 0.593619
275 2 0.920992 0.555707 0.394151
252 2 0.799834 0.593224 0.442696
84 1 0.868315 0.556007 0.463568
305 2 0.835199 0.502776 0.482288
359 2 0.916001 0.575237 0.530062
551 1 0.978829 0.617054 0.551838
234 2 0.88414 0.713385 0.363522
128 1 0.776587 0.609315 0.363983
368 2 0.714767 0.65269 0.358717
453 1 0.923228 0.739985 0.431196
285 2 0.88805 0.717445 0.504299
569 1 0.880688 0.704838 0.586926
538 2 0.927524 0.655285 0.595934
268 2 0.787342 0.694642 0.611818
498 1 0.70535 0.684587 0.649563
472 2 0.909858 0.749907 0.642498
478 1 0.256568 0.750708 0.341231
345 1 0.106128 0.76712 0.417932
448 2 0.138459 0.770334 0.498638
446 2 0.323168 0.752998 0.39983
468 2 0.169878 0.770866 0.643045
52 2 0.111902 0.988802 0.422763
112 2 0.176963 0.898277 0.33483
40 2 0.0936324 0.820047 0.384696
271 1 0.0894326 0.872624 0.342715
293 2 0.0421901 0.910203 0.387739
50 2 0.291039 0.929636 0.412726
461 1 0.0706637 0.941254 0.455862
18 2 0.293568 0.963372 0.564629
124 2 0.128582 0.910827 0.504806
138 1 0.309098 0.981695 0.647959
121 2 0.00080382 0.95789 0.50342
417 1 0.57876 0.775219 0.414772
232 2 0.539006 0.755383 0.486544
532 1 0.473175 0.766181 0.54576
256 2 0.477862 0.752196 0.630491
267 2 0.519899 0.795194 0.346768
48 1 0.335828 0.944394 0.493399
313 2 0.577539 0.930701 0.34151
5 2 0.405369 0.992377 0.657715
386 2 0.39411 0.98871 0.469997
497 1 0.58404 0.931167 0.426111
413 2 0.519485 0.898764 0.46844
545 2 0.640677 0.816687 0.42755
340 2 0.584106 0.983758 0.455159
391 2 0.45825 0.823335 0.540722
90 2 0.38473 0.898689 0.523685
237 1 0.469844 0.881216 0.536826
314 2 0.507919 0.902019 0.608844
395 2 0.648077 0.842266 0.561203
383 2 0.664555 0.905191 0.453572
61 2 0.895087 0.794139 0.42758
438 2 0.842072 0.989578 0.341082
387 2 0.821968 0.864923 0.365311
186 2 0.908759 0.879739 0.486682
335 1 0.851674 0.844601 0.440762
297 2 0.85196 0.965238 0.478279
118 1 0.918056 0.933579 0.519511
277 2 0.773263 0.840624 0.485051
363 1 0.679636 0.851121 0.484251
484 2 0.903092 0.929482 0.605989
156 1 0.00844233 0.0100756 0.994871
353 1 0.252963 0.0692129 0.719585
490 2 0.162086 0.0729927 0.738153
316 1 0.0917955 0.112533 0.730497
53 2 0.287973 0.122356 0.694665
322 2 0.166033 0.123555 0.968392
554 2 0.230057 0.0311628 0.96856
466 2 0.116153 0.156366 0.7819
245 1 0.207019 0.176012 0.966017
166 2 0.304251 0.0549745 0.785257
576 2 0.00830907 0.0913697 0.753808
308 1 0.170685 0.198334 0.810376
222 2 0.200312 0.196571 0.887645
15 2 0.161533 0.2457 0.764251
573 2 0.564144 0.00277705 0.681489
38 1 0.377503 0.13889 0.691439
428 2 0.624795 0.131777 0.933022
402 2 0.41968 0.114622 0.756186
47 1 0.398243 0.067315 0.80529
447 2 0.407104 0.0755837 0.887638
464 2 0.603828 0.03316 0.93192
82 1 0.662116 0.175084 0.98742
260 2 0.456044 0.0259515 0.775394
64 1 0.65936 0.0787387 0.90927
204 2 0.382681 0.195034 0.70013
318 1 0.441936 0.239148 0.698051
98 2 0.847827 0.117593 0.984223
117 2 0.70134 0.05302 0.689663
563 2 0.690659 0.0745418 0.826691
454 2 0.94473 0.0509265 0.976144
514 1 0.746992 0.0474335 0.76767
397 1 0.932995 0.105858 0.959594
574 2 0.729742 0.0660355 0.956386
516 1 0.922022 0.103503 0.790703
8 2 0.93793 0.118658 0.875685
25 2 0.844742 0.0648651 0.784907
67 2 0.891514 0.145818 0.738721
136 1 0.877296 0.20201 0.743151
223 2 0.702947 0.208973 0.929889
324 2 0.806653 0.205757 0.815567
333 2 0.836468 0.239734 0.94898
325 1 0.77607 0.232402 0.888268
7 2 0.956617 0.2225 0.776201
487 1 0.161189 0.47574 0.999055
175 2 0.080014 0.298038 0.666699
330 2 0.288713 0.353953 0.669363
139 2 0.120389 0.324385 0.959887
433 1 0.0913392 0.379548 0.944515
272 1 0.113518 0.293697 0.744944
145 1 0.263223 0.355509 0.751599
378 2 0.173001 0.338391 0.75636
381 1 0.0712649 0.395914 0.794782
555 2 0.0435264 0.296964 0.798733
474 2 0.113298 0.393159 0.866678
295 2 0.327954 0.319546 0.794228
423 2 0.129508 0.419612 0.994897
17 2 0.27788 0.40703 0.784469
493 2 0.0982916 0.425966 0.730353
459 2 0.220532 0.490242 0.931985
404 2 0.28018 0.499466 0.802208
561 1 0.328893 0.453796 0.776355
213 2 0.00599747 0.476245 0.870398
543 1 0.41729 0.316372 0.794919
450 2 0.455366 0.264675 0.775176
504 2 0.463291 0.363926 0.785985
455 2 0.644757 0.366478 0.769053
259 2 0.471842 0.383611 0.914181
552 1 0.480319 0.409823 0.83999
87 2 0.562058 0.432768 0.823868
258 2 0.408511 0.446154 0.823536
16 2 0.359988 0.459053 0.698605
470 1 0.652548 0.416699 0.812587
562 2 0.996738 0.37743 0.956293
334 1 0.916961 0.36592 0.997014
298 1 0.679798 0.342321 0.696662
216 2 0.84158 0.370743 0.943024
568 1 0.920753 0.254678 0.981707
531 2 0.756318 0.284815 0.854109
187 2 0.803085 0.369454 0.811556
30 1 0.967105 0.267583 0.827394
152 2 0.889084 0.297945 0.807133
362 1 0.801681 0.315127 0.795371
215 2 0.972106 0.257066 0.910984
214 2 0.75923 0.314472 0.719825
382 2 0.979842 0.398441 0.803913
27 2 0.935317 0.485951 0.991782
307 1 0.801147 0.400739 0.881913
62 2 0.69406 0.455871 0.763087
356 2 0.71032 0.414558 0.882212
491 2 0.912069 0.469267 0.749857
212 2 0.85926 0.444978 0.867673
102 1 0.936742 0.450615 0.826116
515 1 0.0374234 0.558506 0.672161
485 2 0.0866043 0.511933 0.981852
262 1 0.252213 0.527597 0.87255
396 2 0.185906 0.565803 0.841802
535 2 0.0974848 0.583169 0.73151
207 2 0.327493 0.557671 0.900225
228 1 0.00259347 0.509263 0.940224
217 1 0.159027 0.607794 0.790315
196 2 0.231968 0.630639 0.742499
524 1 0.0881126 0.693718 0.894775
243 2 0.0269481 0.674167 0.958042
456 2 0.130377 0.649368 0.849859
94 2 0.156591 0.725941 0.937769
270 2 0.0370449 0.730162 0.85129
303 2 0.331297 0.675972 0.822881
505 1 0.328939 0.651257 0.744793
572 2 0.307874 0.716109 0.941192
23 2 0.451802 0.546776 0.978417
127 1 0.417367 0.576805 0.915547
63 2 0.466952 0.568445 0.845299
239 2 0.456875 0.528524 0.70945
154 1 0.466709 0.575318 0.759855
550 1 0.61966 0.591758 0.683611
77 2 0.645047 0.5364 0.699354
130 2 0.545199 0.601734 0.734062
35 2 0.389782 0.607048 0.742033
66 1 0.463207 0.704324 0.675417
529 2 0.405131 0.633654 0.932458
483 2 0.372095 0.690629 0.693862
192 1 0.374423 0.684855 0.896978
513 2 0.454312 0.713922 0.877071
339 2 0.513387 0.706626 0.747921
287 2 0.603772 0.696712 0.881
3 1 0.532074 0.720589 0.830988
309 1 0.659695 0.667755 0.941067
244 1 0.941126 0.677997 0.997503
135 2 0.72206 0.5289 0.959268
530 2 0.972667 0.562428 0.912546
416 1 0.70848 0.512648 0.751022
177 2 0.944054 0.55096 0.689462
227 1 0.882056 0.505136 0.691172
477 2 0.79541 0.521103 0.713804
496 1 0.733037 0.566607 0.894558
319 2 0.697276 0.539427 0.827042
486 2 0.822005 0.574544 0.884587
110 1 0.90184 0.602272 0.899946
85 2 0.913667 0.639726 0.838962
24 2 0.693861 0.618551 0.90753
13 2 0.689488 0.631091 0.686051
500 2 0.70758 0.721581 0.7176
286 2 0.888232 0.72021 0.960084
150 2 0.7311 0.705591 0.956144
384 2 0.896263 0.629401 0.974595
570 1 0.802124 0.738426 0.926635
99 2 0.780896 0.737863 0.841531
408 1 0.23708 0.754609 0.949072
371 1 0.0300463 0.784154 0.82557
197 2 0.105505 0.794844 0.773261
143 2 0.249064 0.798579 0.89149
492 2 0.252308 0.802855 0.750348
444 1 0.167501 0.807455 0.710844
273 1 0.104646 0.905779 0.719647
539 2 0.147427 0.860539 0.689009
304 2 0.0144481 0.914705 0.702277
108 2 0.0119495 0.972153 0.931574
86 2 0.171298 0.939714 0.97216
198 2 0.0325737 0.818331 0.894488
174 1 0.287884 0.823272 0.823801
100 1 0.240039 0.972885 0.950302
320 2 0.154952 0.933364 0.774234
430 2 0.260378 0.964313 0.86993
93 1 0.250768 0.935182 0.796521
537 2 0.277454 0.88181 0.817657
92 1 0.0112452 0.831131 0.977448
106 2 0.282422 0.952547 0.717638
347 2 0.449134 0.81555 0.996283
369 2 0.531396 0.780846 0.824031
65 1 0.478263 0.989387 0.71338
151 2 0.381348 0.813837 0.824828
471 1 0.463863 0.816416 0.790404
72 2 0.53687 0.944898 0.940424
434 1 0.599039 0.98023 0.972321
366 2 0.61511 0.886112 0.712087
400 2 0.486179 0.934331 0.738324
191 1 0.523497 0.891688 0.690244
269 2 0.481607 0.84372 0.720768
107 2 0.957362 0.789168 0.773575
336 1 0.743585 0.762319 0.769697
282 1 0.902262 0.79318 0.702273
418 2 0.811413 0.792221 0.729742
231 2 0.796908 0.794094 0.95367
113 2 0.682447 0.805963 0.783052
342 2 0.916873 0.84361 0.982096
88 2 0.775517 0.881779 0.990448
162 2 0.912148 0.848143 0.673147
255 1 0.921072 0.904745 0.682783
443 1 0.671469 0.862242 0.768088
59 2 0.689543 0.956025 0.967389
241 2 0.75171 0.990755 0.783171
70 2 0.73272 0.897254 0.801336
11 1 0.776612 0.938248 0.971268
512 2 0.814242 0.944448 0.891685
201 1 0.794873 0.942287 0.806328
240 2 0.869441 0.925146 0.753007
ITEM: TIMESTEP
2000
ITEM: NUMBER OF ATOMS
576
ITEM: BOX BOUNDS pp pp pp
1.6813298824966569e+00 1.8904247829103532e+01
-3.5304513441954359e+00 2.4116029055818959e+01
7.1656219733431392e-01 1.9869015514264422e+01
ITEM: ATOMS id type xs ys zs
377 2 0.146252 0.138161 0.194872
165 1 0.159873 0.0859538 0.160535
421 2 0.185124 0.087283 0.0820281
81 2 0.219947 0.0553057 0.200439
385 2 0.0726252 0.068474 0.163819
542 1 0.282293 0.0141868 0.207501
410 2 0.0187258 0.184348 0.155919
208 1 0.0937911 0.186184 0.206473
147 1 0.0188253 0.0469985 0.222254
80 2 0.0685616 0.0431949 0.293452
218 1 0.173106 0.070324 0.00404113
276 2 0.0908068 0.0446997 0.999659
261 2 0.275803 0.185712 0.123517
206 2 0.0718638 0.193434 0.289173
10 1 0.208857 0.224701 0.10604
97 2 0.150458 0.224668 0.170703
205 2 0.178934 0.204572 0.0302533
508 2 0.306472 0.166388 -0.00024826
556 2 0.295586 0.994566 0.127728
380 1 0.343538 0.165566 0.0772486
248 2 0.362253 0.0402077 0.233247
360 2 0.373861 0.112762 0.0900539
327 1 0.438385 0.0461519 0.281223
33 2 0.497386 0.0857386 0.246162
534 1 0.558172 0.103664 0.188802
51 2 0.519525 0.0830968 0.114935
44 2 0.641098 0.0818219 0.203284
280 1 0.440642 0.0760135 0.0786003
358 2 0.578311 0.158771 0.176639
294 2 0.415968 0.0228131 0.0563387
509 2 0.617861 0.190353 0.0475588
32 2 0.479039 0.995186 0.280846
221 2 0.415646 0.198261 0.0978764
390 1 0.607507 0.206156 0.129615
526 2 0.407031 0.229927 0.229259
263 1 0.440663 0.23888 0.150572
409 2 0.533 0.241921 0.139249
188 2 0.529928 0.245293 0.325818
184 2 0.983645 0.133964 0.032796
125 2 0.727415 0.0208694 0.272936
119 1 0.711217 0.0774788 0.260513
558 2 0.79006 0.0961498 0.229427
559 1 0.873282 0.124468 0.224535
458 2 0.944196 0.0848327 0.234708
140 2 0.885603 0.150179 0.150104
246 1 0.954972 0.171632 0.0972525
494 2 0.864988 0.163908 0.287837
265 2 0.794761 0.0468409 0.0908027
481 2 0.725717 0.129528 0.0480173
523 1 0.783615 0.0868272 0.0342374
247 2 0.680437 0.233875 0.167744
115 2 0.938244 0.216208 0.0474601
83 1 0.858506 0.223106 0.312833
441 2 0.798938 0.248988 0.260483
571 2 0.947165 0.237022 0.310763
507 1 0.309984 0.306194 0.14654
422 2 0.298753 0.289994 0.229494
301 2 0.247794 0.276578 0.10125
403 2 0.312927 0.363598 0.150726
349 2 0.0230131 0.343712 0.321064
89 2 0.119391 0.41401 0.34357
499 2 0.187189 0.45295 0.229498
357 2 0.18576 0.482964 0.0883335
46 1 0.23076 0.481249 0.163543
354 1 0.182435 0.449587 0.314598
427 2 0.316674 0.453812 0.169639
20 1 0.353121 0.260151 0.280147
288 2 0.547636 0.33679 0.275751
344 1 0.506925 0.388242 0.280162
424 1 0.584271 0.293712 0.323657
126 2 0.396034 0.300137 0.325085
445 2 0.396359 0.288131 0.131412
41 2 0.661308 0.27499 0.288486
337 2 0.434653 0.399557 0.224372
425 1 0.356896 0.405795 0.184527
473 2 0.570281 0.43104 0.281624
300 1 0.631819 0.463418 0.231448
393 2 0.640411 0.458039 0.0347469
420 2 0.677722 0.41976 0.195273
310 2 0.725376 0.326017 0.199818
42 2 0.909729 0.304685 0.00474937
37 1 0.718278 0.268337 0.225881
343 1 0.734216 0.380008 0.215606
401 2 0.796894 0.397375 0.266519
544 2 0.704342 0.495693 0.259307
465 2 0.88394 0.398308 0.0475728
462 1 0.856538 0.453005 0.0440518
302 2 0.833134 0.473788 0.117113
242 2 0.244457 0.535072 0.191833
331 2 0.164804 0.591302 0.270849
163 1 0.249476 0.579168 0.243699
437 2 0.322872 0.568262 0.298139
76 2 0.00579622 0.566953 0.28177
91 1 0.0732818 0.608793 0.274868
332 2 0.0523692 0.639993 0.204791
168 2 0.245761 0.716809 0.24326
518 2 0.277486 0.627341 0.202204
479 1 0.30374 0.680673 0.212695
511 2 0.0477611 0.729604 0.15299
478 1 0.247768 0.749874 0.312623
546 2 0.576693 0.504239 0.197503
549 2 0.471379 0.564359 0.249502
109 1 0.418203 0.562846 0.320084
164 1 0.539442 0.555288 0.198075
230 2 0.581451 0.594348 0.15343
266 2 0.385179 0.693738 0.186977
291 1 0.465228 0.71977 0.166794
527 2 0.528584 0.681079 0.139565
55 1 0.604446 0.648928 0.122631
144 2 0.495873 0.747683 0.231944
419 2 0.626483 0.653873 0.0405026
148 2 0.658186 0.712341 0.280854
173 1 0.775011 0.51079 0.311792
195 2 0.870732 0.513702 0.292667
137 1 0.952498 0.532171 0.328479
405 2 0.751163 0.563115 0.338916
406 1 1.00015 0.682445 0.169523
43 2 0.680131 0.669708 0.165615
502 2 0.960928 0.675631 0.091282
28 1 0.87491 0.689783 0.292762
224 2 0.937229 0.689235 0.230273
469 1 0.716674 0.712036 0.217564
34 2 0.798978 0.708345 0.255289
159 2 0.847173 0.639986 0.325539
415 1 0.0533933 0.781709 0.12099
134 2 0.240731 0.782921 0.0204834
414 2 0.0337794 0.786944 0.0407038
202 2 0.145245 0.79605 0.129048
520 2 0.274604 0.801648 0.287065
306 2 0.288737 0.816391 0.152788
442 1 0.221692 0.814838 0.0912844
475 2 0.110674 0.944543 0.0956597
323 2 0.250602 0.974427 0.259798
439 2 0.200856 0.869506 0.070436
56 1 0.139679 0.905539 0.0381394
104 2 0.0564669 0.872227 0.266908
2 1 0.0275426 0.960759 0.127555
315 2 0.301472 0.88765 0.242063
199 1 0.318178 0.833038 0.231481
482 2 0.0140318 0.993053 0.196488
338 2 0.319076 0.964545 0.993969
296 2 0.0669622 0.871504 0.00624021
372 1 0.260963 0.923923 0.297311
328 2 0.990363 0.988925 0.06346
112 2 0.184068 0.896562 0.32575
167 2 0.44956 0.753545 0.104697
219 1 0.498702 0.801683 0.26552
251 2 0.592503 0.975408 0.047789
264 1 0.355373 0.979714 0.0652901
57 1 0.487183 0.796196 0.0630807
96 2 0.409853 0.821771 0.247905
541 1 0.521987 0.948994 0.251024
283 2 0.563499 0.829939 0.218342
367 2 0.569036 0.806645 0.0921926
365 2 0.400772 0.93525 0.0998647
73 1 0.445944 0.894896 0.13472
103 2 0.466919 0.912774 0.207837
257 2 0.582969 0.967968 0.195547
238 2 0.442138 0.846539 0.0910149
326 1 0.604963 0.844281 0.145376
312 2 0.586687 0.898229 0.119565
190 1 0.618677 0.952715 0.119525
347 2 0.492048 0.784102 0.981214
157 2 0.723233 0.761614 0.175494
105 2 0.994653 0.910099 0.149035
278 2 0.00468755 0.816638 0.172102
253 1 0.788523 0.990586 0.111699
155 1 0.990901 0.869728 0.205034
101 1 0.763347 0.81149 0.170957
95 2 0.825156 0.814011 0.105563
567 2 0.828851 0.988067 0.188983
189 2 0.695073 0.846285 0.150182
440 2 0.790792 0.829967 0.244325
74 1 0.829833 0.876214 0.278637
522 2 0.707819 0.965498 0.128157
317 1 0.792388 0.981564 0.26681
122 2 0.910439 0.878081 0.238192
14 2 0.778748 0.924175 0.265174
79 2 0.823912 0.963264 0.0405109
289 1 0.837271 0.828532 0.0271732
88 2 0.790854 0.877617 0.00961863
203 2 0.265866 0.151155 0.404044
407 1 0.0820499 0.052833 0.371814
376 2 0.147148 0.091979 0.396171
388 1 0.223886 0.106169 0.437401
26 2 0.286527 0.0653073 0.427526
220 2 0.998861 0.0703823 0.395582
284 2 0.201457 0.113233 0.517142
311 2 0.0773887 0.160432 0.530456
426 1 0.156616 0.146889 0.572006
142 2 0.125927 0.128458 0.649764
279 2 0.212028 0.193002 0.572591
361 1 0.322865 0.197059 0.398273
521 2 0.303286 0.228248 0.331614
49 2 0.312128 0.220203 0.474156
129 1 0.0229718 0.218417 0.35119
435 1 0.241012 0.234712 0.523204
4 2 0.996014 0.183548 0.420168
52 2 0.0915753 0.0050337 0.41766
341 2 0.553803 0.151554 0.356455
321 2 0.417355 0.0602579 0.359533
75 1 0.620779 0.119875 0.390418
1 1 0.377193 0.0575137 0.434214
71 2 0.594896 0.0706834 0.426189
436 2 0.414122 0.188238 0.383594
29 1 0.630348 0.018806 0.455016
250 2 0.414329 0.0988969 0.482814
146 1 0.46387 0.113248 0.551265
176 2 0.531682 0.149784 0.537372
375 2 0.410676 0.134427 0.612536
114 2 0.500857 0.0651593 0.575473
210 1 0.574719 0.0381792 0.6027
506 1 0.591529 0.187079 0.504833
229 2 0.648805 0.155299 0.453816
510 2 0.619881 0.0126707 0.536987
533 1 0.505223 0.200338 0.375049
45 2 0.537834 0.215479 0.447455
463 2 0.614235 0.226468 0.561918
171 2 0.506384 0.242516 0.654472
386 2 0.382534 0.00992037 0.478842
117 2 0.624163 0.0740763 0.644984
501 2 0.682189 0.105331 0.329728
182 1 0.989683 0.168516 0.498928
68 2 0.720079 0.0162348 0.431449
178 2 0.857083 0.0510301 0.441945
111 1 0.93479 0.075604 0.4497
540 2 0.945425 0.117676 0.501401
553 2 0.841776 0.241007 0.394876
547 2 0.949109 0.203122 0.554117
236 1 0.898802 0.240076 0.597473
36 2 0.263687 0.433336 0.34356
525 1 0.0688575 0.372306 0.379185
292 2 0.122771 0.3383 0.427538
193 2 0.179241 0.253354 0.470756
209 1 0.104817 0.285964 0.458936
158 2 0.0613754 0.260277 0.396941
78 2 0.0647125 0.291406 0.535277
160 2 0.262755 0.280983 0.566154
480 1 0.0410842 0.302976 0.614266
179 2 0.325332 0.364562 0.406469
411 2 0.0376471 0.360176 0.629776
185 2 1.00388 0.390269 0.439054
170 2 0.161447 0.498987 0.351429
495 2 0.0149394 0.495708 0.364009
299 1 0.296052 0.41797 0.41925
9 2 0.115228 0.481548 0.474708
180 2 0.233343 0.426671 0.477334
254 1 0.185811 0.465721 0.523616
225 2 0.154045 0.448657 0.597622
226 1 0.105282 0.46511 0.660829
200 1 0.323629 0.307076 0.613021
274 2 0.455859 0.383934 0.350479
169 2 0.60911 0.316287 0.396122
21 1 0.404031 0.340287 0.383904
519 2 0.444178 0.320625 0.451229
141 2 0.529234 0.305762 0.562342
183 1 0.462498 0.338478 0.526758
370 1 0.575598 0.267249 0.610867
557 2 0.385567 0.336431 0.571914
22 2 0.485149 0.394974 0.525573
153 2 0.367061 0.266365 0.655702
31 2 0.627061 0.297484 0.661283
233 2 0.370348 0.452754 0.436375
54 2 0.492439 0.483235 0.490035
503 2 0.600843 0.440474 0.57635
281 1 0.509893 0.446621 0.553527
161 2 0.460078 0.465839 0.617363
560 1 0.409264 0.504847 0.659068
348 2 0.662135 0.377668 0.493593
364 2 0.703292 0.372693 0.623081
235 1 0.684019 0.342377 0.430037
432 2 0.895729 0.323022 0.462456
489 1 0.831195 0.279388 0.458298
449 2 0.74826 0.30518 0.452375
290 1 0.914071 0.380928 0.457153
329 2 0.953432 0.28319 0.623621
58 2 0.838747 0.256151 0.537049
566 2 0.722296 0.374078 0.36876
249 2 0.864778 0.400644 0.393239
172 1 0.791101 0.410879 0.347666
374 2 0.768297 0.464965 0.361693
398 1 0.678367 0.409421 0.563586
6 2 0.890193 0.414579 0.523851
467 2 0.878101 0.484114 0.623055
132 2 0.755479 0.441754 0.549885
181 1 0.843635 0.462267 0.547634
392 2 0.0734 0.516286 0.658613
19 1 0.0944793 0.510033 0.403872
476 2 0.0860976 0.564805 0.425584
517 2 0.242683 0.512071 0.539257
120 1 0.310265 0.551654 0.545035
548 2 0.0406589 0.600198 0.60723
350 2 0.27361 0.603984 0.541143
528 2 0.0741852 0.636539 0.348434
373 2 0.170217 0.749865 0.35756
460 1 0.0884329 0.623402 0.427978
116 2 0.170199 0.641051 0.453714
194 2 0.024601 0.63972 0.48501
39 1 0.241946 0.65232 0.505965
12 1 0.153075 0.740579 0.565386
69 2 0.0722141 0.718165 0.578069
346 2 0.217009 0.696924 0.553552
564 2 0.027739 0.747483 0.423687
575 2 0.314022 0.667779 0.458928
446 2 0.31647 0.72548 0.354483
389 1 0.420809 0.500486 0.442878
394 2 0.43726 0.516965 0.365416
133 2 0.368433 0.540025 0.480269
457 2 0.365203 0.540028 0.608297
351 2 0.570382 0.613656 0.612728
131 2 0.4506 0.605941 0.369881
412 2 0.573099 0.652608 0.355396
352 1 0.641913 0.689165 0.355541
536 2 0.53167 0.648473 0.487469
488 1 0.49943 0.647024 0.40612
399 1 0.360338 0.710082 0.424738
60 2 0.443905 0.692959 0.402161
431 2 0.363463 0.754539 0.472748
565 2 0.619276 0.731413 0.407312
429 2 0.488622 0.685484 0.612782
379 1 0.552942 0.660543 0.569473
355 2 0.636589 0.692135 0.591154
275 2 0.916352 0.556997 0.39635