ITEM: TIMESTEP
0
ITEM: NUMBER OF ATOMS
759
ITEM: BOX BOUNDS pp ss pp
0.0000000000000000e+00 5.1374269009840255e+01
-2.2245711031688635e-03 2.2247935602791809e+01
-3.2108918131150160e-01 3.2108918131150160e-01
ITEM: ATOMS id type x y z vx
1 2 0 0 0 0
3 2 1.28436 0 0 0
5 2 2.56871 0 0 0
7 2 3.85307 0 0 0
9 2 5.13743 0 0 0
11 2 6.42178 0 0 0
13 2 7.70614 0 0 0
15 2 8.9905 0 0 0
17 2 10.2749 0 0 0
19 2 11.5592 0 0 0
21 2 12.8436 0 0 0
23 2 14.1279 0 0 0
25 2 15.4123 0 0 0
27 2 16.6966 0 0 0
29 2 17.981 0 0 0
31 2 19.2654 0 0 0
33 2 20.5497 0 0 0
35 2 21.8341 0 0 0
37 2 23.1184 0 0 0
39 2 24.4028 0 0 0
41 2 25.6871 0 0 0
43 2 26.9715 0 0 0
45 2 28.2558 0 0 0
47 2 29.5402 0 0 0
49 2 30.8246 0 0 0
51 2 32.1089 0 0 0
53 2 33.3933 0 0 0
55 2 34.6776 0 0 0
57 2 35.962 0 0 0
59 2 37.2463 0 0 0
61 2 38.5307 0 0 0
63 2 39.8151 0 0 0
65 2 41.0994 0 0 0
67 2 42.3838 0 0 0
69 2 43.6681 0 0 0
71 2 44.9525 0 0 0
73 2 46.2368 0 0 0
75 2 47.5212 0 0 0
77 2 48.8056 0 0 0
79 2 50.0899 0 0 0
2 2 0.642178 1.11229 0 0
4 2 1.92654 1.11229 0 0
6 2 3.21089 1.11229 0 0
8 2 4.49525 1.11229 0 0
10 2 5.77961 1.11229 0 0
12 2 7.06396 1.11229 0 0
14 2 8.34832 1.11229 0 0
16 2 9.63268 1.11229 0 0
18 2 10.917 1.11229 0 0
20 2 12.2014 1.11229 0 0
22 2 13.4857 1.11229 0 0
24 2 14.7701 1.11229 0 0
26 2 16.0545 1.11229 0 0
28 2 17.3388 1.11229 0 0
30 2 18.6232 1.11229 0 0
32 2 19.9075 1.11229 0 0
34 2 21.1919 1.11229 0 0
36 2 22.4762 1.11229 0 0
38 2 23.7606 1.11229 0 0
40 2 25.045 1.11229 0 0
42 2 26.3293 1.11229 0 0
44 2 27.6137 1.11229 0 0
46 2 28.898 1.11229 0 0
48 2 30.1824 1.11229 0 0
50 2 31.4667 1.11229 0 0
52 2 32.7511 1.11229 0 0
54 2 34.0355 1.11229 0 0
56 2 35.3198 1.11229 0 0
58 2 36.6042 1.11229 0 0
60 2 37.8885 1.11229 0 0
62 2 39.1729 1.11229 0 0
64 2 40.4572 1.11229 0 0
66 2 41.7416 1.11229 0 0
68 2 43.026 1.11229 0 0
70 2 44.3103 1.11229 0 0
72 2 45.5947 1.11229 0 0
74 2 46.879 1.11229 0 0
76 2 48.1634 1.11229 0 0
78 2 49.4477 1.11229 0 0
80 2 50.7321 1.11229 0 0
81 2 0 2.22457 0 0
83 2 1.28436 2.22457 0 0
85 2 2.56871 2.22457 0 0
87 2 3.85307 2.22457 0 0
89 2 5.13743 2.22457 0 0
91 2 6.42178 2.22457 0 0
93 2 7.70614 2.22457 0 0
95 2 8.9905 2.22457 0 0
97 2 10.2749 2.22457 0 0
99 2 11.5592 2.22457 0 0
101 2 12.8436 2.22457 0 0
103 2 14.1279 2.22457 0 0
105 2 15.4123 2.22457 0 0
107 2 16.6966 2.22457 0 0
109 2 17.981 2.22457 0 0
111 2 19.2654 2.22457 0 0
113 2 20.5497 2.22457 0 0
115 2 21.8341 2.22457 0 0
117 2 23.1184 2.22457 0 0
119 2 24.4028 2.22457 0 0
121 2 25.6871 2.22457 0 0
123 2 26.9715 2.22457 0 0
125 2 28.2558 2.22457 0 0
127 2 29.5402 2.22457 0 0
129 2 30.8246 2.22457 0 0
131 2 32.1089 2.22457 0 0
133 2 33.3933 2.22457 0 0
135 2 34.6776 2.22457 0 0
137 2 35.962 2.22457 0 0
139 2 37.2463 2.22457 0 0
141 2 38.5307 2.22457 0 0
143 2 39.8151 2.22457 0 0
145 2 41.0994 2.22457 0 0
147 2 42.3838 2.22457 0 0
149 2 43.6681 2.22457 0 0
151 2 44.9525 2.22457 0 0
153 2 46.2368 2.22457 0 0
155 2 47.5212 2.22457 0 0
157 2 48.8056 2.22457 0 0
159 2 50.0899 2.22457 0 0
82 1 0.642178 3.33686 0 0.459175
84 1 1.92654 3.33686 0 1.39575
86 1 3.21089 3.33686 0 -0.731083
88 1 4.49525 3.33686 0 -1.35769
90 1 5.77961 3.33686 0 -0.724281
92 1 7.06396 3.33686 0 1.29927
94 1 8.34832 3.33686 0 -1.07195
96 1 9.63268 3.33686 0 -1.26878
98 1 10.917 3.33686 0 -0.30736
100 1 12.2014 3.33686 0 0.253715
102 1 13.4857 3.33686 0 -1.65315
104 1 14.7701 3.33686 0 -0.19003
106 1 16.0545 3.33686 0 0.797823
108 1 17.3388 3.33686 0 -0.483592
110 1 18.6232 3.33686 0 -0.588314
112 1 19.9075 3.33686 0 0.47917
114 1 21.1919 3.33686 0 -0.0939825
116 1 22.4762 3.33686 0 0.120505
118 1 23.7606 3.33686 0 -1.57483
120 1 25.045 3.33686 0 -0.901734
122 1 26.3293 3.33686 0 0.930853
124 1 27.6137 3.33686 0 -0.273582
126 1 28.898 3.33686 0 0.599347
128 1 30.1824 3.33686 0 0.752339
130 1 31.4667 3.33686 0 0.74155
132 1 32.7511 3.33686 0 -0.215352
134 1 34.0355 3.33686 0 0.0583874
136 1 35.3198 3.33686 0 1.43289
138 1 36.6042 3.33686 0 1.48242
140 1 37.8885 3.33686 0 1.42242
142 1 39.1729 3.33686 0 -0.340879
144 1 40.4572 3.33686 0 -1.01309
146 1 41.7416 3.33686 0 -1.33044
148 1 43.026 3.33686 0 1.19422
150 1 44.3103 3.33686 0 0.907314
152 1 45.5947 3.33686 0 -0.525437
154 1 46.879 3.33686 0 -0.708846
156 1 48.1634 3.33686 0 -0.768682
158 1 49.4477 3.33686 0 -1.69489
160 1 50.7321 3.33686 0 1.61344
161 1 0 4.44914 0 0.668614
163 1 1.28436 4.44914 0 -0.544456
165 1 2.56871 4.44914 0 -1.52552
167 1 3.85307 4.44914 0 -1.67746
169 1 5.13743 4.44914 0 -1.57623
171 1 6.42178 4.44914 0 1.39809
173 1 7.70614 4.44914 0 1.64681
175 1 8.9905 4.44914 0 -0.0189919
177 1 10.2749 4.44914 0 0.862583
179 1 11.5592 4.44914 0 -1.68539
181 1 12.8436 4.44914 0 -1.29962
183 1 14.1279 4.44914 0 -1.14793
185 1 15.4123 4.44914 0 -1.56336
187 1 16.6966 4.44914 0 -1.39457
189 1 17.981 4.44914 0 0.492284
191 1 19.2654 4.44914 0 1.64132
193 1 20.5497 4.44914 0 -1.48495
195 1 21.8341 4.44914 0 -1.19609
197 1 23.1184 4.44914 0 1.18964
199 1 24.4028 4.44914 0 1.4664
201 1 25.6871 4.44914 0 -1.24148
203 1 26.9715 4.44914 0 -1.02627
205 1 28.2558 4.44914 0 -1.43248
207 1 29.5402 4.44914 0 0.298225
209 1 30.8246 4.44914 0 0.892392
211 1 32.1089 4.44914 0 -0.912292
213 1 33.3933 4.44914 0 1.50501
215 1 34.6776 4.44914 0 -1.25002
217 1 35.962 4.44914 0 -0.82469
219 1 37.2463 4.44914 0 0.545058
221 1 38.5307 4.44914 0 -0.505439
223 1 39.8151 4.44914 0 0.228269
225 1 41.0994 4.44914 0 0.207185
227 1 42.3838 4.44914 0 1.68614
229 1 43.6681 4.44914 0 1.09138
231 1 44.9525 4.44914 0 1.47043
233 1 46.2368 4.44914 0 0.190547
235 1 47.5212 4.44914 0 0.917747
237 1 48.8056 4.44914 0 -0.280013
239 1 50.0899 4.44914 0 1.61733
162 1 0.642178 5.56143 0 -0.727422
164 1 1.92654 5.56143 0 -0.785007
166 1 3.21089 5.56143 0 -0.363169
168 1 4.49525 5.56143 0 -0.532297
170 1 5.77961 5.56143 0 0.718076
172 1 7.06396 5.56143 0 0.132387
174 1 8.34832 5.56143 0 1.2362
176 1 9.63268 5.56143 0 0.99759
178 1 10.917 5.56143 0 -1.61289
180 1 12.2014 5.56143 0 0.849992
182 1 13.4857 5.56143 0 0.465515
184 1 14.7701 5.56143 0 0.435337
186 1 16.0545 5.56143 0 -1.22015
188 1 17.3388 5.56143 0 -0.862007
190 1 18.6232 5.56143 0 -1.14972
192 1 19.9075 5.56143 0 -0.639426
194 1 21.1919 5.56143 0 0.642513
196 1 22.4762 5.56143 0 -1.28468
198 1 23.7606 5.56143 0 1.40109
200 1 25.045 5.56143 0 0.836491
202 1 26.3293 5.56143 0 -1.37091
204 1 27.6137 5.56143 0 -1.62001
206 1 28.898 5.56143 0 0.0799584
208 1 30.1824 5.56143 0 1.19043
210 1 31.4667 5.56143 0 -1.65246
212 1 32.7511 5.56143 0 1.58904
214 1 34.0355 5.56143 0 -1.12841
216 1 35.3198 5.56143 0 1.67009
218 1 36.6042 5.56143 0 0.821774
220 1 37.8885 5.56143 0 1.67549
222 1 39.1729 5.56143 0 -0.593717
224 1 40.4572 5.56143 0 0.703163
226 1 41.7416 5.56143 0 -0.238892
228 1 43.026 5.56143 0 0.838974
230 1 44.3103 5.56143 0 -0.457076
232 1 45.5947 5.56143 0 -0.769853
234 1 46.879 5.56143 0 -0.539862
236 1 48.1634 5.56143 0 -1.47516
238 1 49.4477 5.56143 0 -1.40312
240 1 50.7321 5.56143 0 0.175841
241 1 0 6.67371 0 1.00617
243 1 1.28436 6.67371 0 -1.61915
245 1 2.56871 6.67371 0 -0.543932
247 1 3.85307 6.67371 0 0.0356606
249 1 5.13743 6.67371 0 0.239199
251 1 6.42178 6.67371 0 0.773326
253 1 7.70614 6.67371 0 -0.627037
255 1 8.9905 6.67371 0 -0.510875
257 1 10.2749 6.67371 0 1.1325
259 1 11.5592 6.67371 0 -0.426584
279 1 24.4028 6.67371 0 -1.39568
281 1 25.6871 6.67371 0 0.101014
283 1 26.9715 6.67371 0 -0.515875
285 1 28.2558 6.67371 0 -0.356829
287 1 29.5402 6.67371 0 -0.623795
289 1 30.8246 6.67371 0 -1.05825
291 1 32.1089 6.67371 0 1.45216
293 1 33.3933 6.67371 0 0.123274
295 1 34.6776 6.67371 0 -1.31394
297 1 35.962 6.67371 0 -0.429528
299 1 37.2463 6.67371 0 1.49016
301 1 38.5307 6.67371 0 0.238924
303 1 39.8151 6.67371 0 -1.52911
305 1 41.0994 6.67371 0 1.64669
307 1 42.3838 6.67371 0 -0.466772
309 1 43.6681 6.67371 0 1.04757
311 1 44.9525 6.67371 0 1.25325
313 1 46.2368 6.67371 0 -0.967894
315 1 47.5212 6.67371 0 0.0321604
317 1 48.8056 6.67371 0 1.06554
319 1 50.0899 6.67371 0 0.0959668
242 1 0.642178 7.786 0 -0.509043
244 1 1.92654 7.786 0 -0.530453
246 1 3.21089 7.786 0 0.962373
248 1 4.49525 7.786 0 1.67863
250 1 5.77961 7.786 0 -1.65358
252 1 7.06396 7.786 0 0.112618
254 1 8.34832 7.786 0 0.527158
256 1 9.63268 7.786 0 0.380286
258 1 10.917 7.786 0 1.39751
260 1 12.2014 7.786 0 -1.25654
280 1 25.045 7.786 0 1.39279
282 1 26.3293 7.786 0 -1.27225
284 1 27.6137 7.786 0 -0.445207
286 1 28.898 7.786 0 -0.805596
288 1 30.1824 7.786 0 -0.63207
290 1 31.4667 7.786 0 1.1946
292 1 32.7511 7.786 0 -1.64363
294 1 34.0355 7.786 0 -1.36681
296 1 35.3198 7.786 0 0.527552
298 1 36.6042 7.786 0 -1.21556
300 1 37.8885 7.786 0 -0.2207
302 1 39.1729 7.786 0 1.56882
304 1 40.4572 7.786 0 0.655047
306 1 41.7416 7.786 0 1.36632
308 1 43.026 7.786 0 0.768868
310 1 44.3103 7.786 0 -1.39147
312 1 45.5947 7.786 0 0.863401
314 1 46.879 7.786 0 -1.38743
316 1 48.1634 7.786 0 -1.25085
318 1 49.4477 7.786 0 0.578069
320 1 50.7321 7.786 0 0.547724
321 1 0 8.89828 0 -1.30931
323 1 1.28436 8.89828 0 -1.07804
325 1 2.56871 8.89828 0 -1.44878
327 1 3.85307 8.89828 0 -0.307926
329 1 5.13743 8.89828 0 0.887646
331 1 6.42178 8.89828 0 0.824811
333 1 7.70614 8.89828 0 0.6071
335 1 8.9905 8.89828 0 -0.0862824
337 1 10.2749 8.89828 0 1.29864
339 1 11.5592 8.89828 0 1.19598
341 1 12.8436 8.89828 0 -0.500419
361 1 25.6871 8.89828 0 -1.51318
363 1 26.9715 8.89828 0 1.45443
365 1 28.2558 8.89828 0 -1.17042
367 1 29.5402 8.89828 0 1.49592
369 1 30.8246 8.89828 0 1.47194
371 1 32.1089 8.89828 0 1.15261
373 1 33.3933 8.89828 0 1.63472
375 1 34.6776 8.89828 0 -0.253741
377 1 35.962 8.89828 0 -1.15813
379 1 37.2463 8.89828 0 0.948699
381 1 38.5307 8.89828 0 1.47142
383 1 39.8151 8.89828 0 0.778485
385 1 41.0994 8.89828 0 0.392675
387 1 42.3838 8.89828 0 -1.25956
389 1 43.6681 8.89828 0 0.67775
391 1 44.9525 8.89828 0 1.2125
393 1 46.2368 8.89828 0 1.53274
395 1 47.5212 8.89828 0 0.630985
397 1 48.8056 8.89828 0 1.3974
399 1 50.0899 8.89828 0 -0.670395
322 1 0.642178 10.0106 0 -0.0598285
324 1 1.92654 10.0106 0 1.14632
326 1 3.21089 10.0106 0 0.30707
328 1 4.49525 10.0106 0 -0.307122
330 1 5.77961 10.0106 0 0.731501
332 1 7.06396 10.0106 0 -0.0786811
334 1 8.34832 10.0106 0 -1.47346
336 1 9.63268 10.0106 0 0.0570054
338 1 10.917 10.0106 0 1.14226
340 1 12.2014 10.0106 0 -1.20734
342 1 13.4857 10.0106 0 -0.534835
362 1 26.3293 10.0106 0 -0.668244
364 1 27.6137 10.0106 0 1.43404
366 1 28.898 10.0106 0 -1.39399
368 1 30.1824 10.0106 0 1.52775
370 1 31.4667 10.0106 0 -0.714921
372 1 32.7511 10.0106 0 1.49818
374 1 34.0355 10.0106 0 -0.297439
376 1 35.3198 10.0106 0 -0.987013
378 1 36.6042 10.0106 0 0.314455
380 1 37.8885 10.0106 0 0.794896
382 1 39.1729 10.0106 0 -1.36602
384 1 40.4572 10.0106 0 0.532029
386 1 41.7416 10.0106 0 -1.13876
388 1 43.026 10.0106 0 0.162223
390 1 44.3103 10.0106 0 1.16407
392 1 45.5947 10.0106 0 -1.4403
394 1 46.879 10.0106 0 0.577379
396 1 48.1634 10.0106 0 -0.469481
398 1 49.4477 10.0106 0 0.305544
400 1 50.7321 10.0106 0 -1.36801
401 1 0 11.1229 0 0.81405
403 1 1.28436 11.1229 0 0.246213
405 1 2.56871 11.1229 0 -0.715871
407 1 3.85307 11.1229 0 0.863269
409 1 5.13743 11.1229 0 0.333052
411 1 6.42178 11.1229 0 -1.03669
413 1 7.70614 11.1229 0 0.174343
415 1 8.9905 11.1229 0 1.28719
417 1 10.2749 11.1229 0 0.16055
419 1 11.5592 11.1229 0 0.0412988
421 1 12.8436 11.1229 0 0.903301
423 1 14.1279 11.1229 0 -0.759341
443 1 26.9715 11.1229 0 0.905456
445 1 28.2558 11.1229 0 -0.994897
447 1 29.5402 11.1229 0 0.821317
449 1 30.8246 11.1229 0 0.715388
451 1 32.1089 11.1229 0 0.123175
453 1 33.3933 11.1229 0 -1.36635
455 1 34.6776 11.1229 0 0.772598
457 1 35.962 11.1229 0 1.25549
459 1 37.2463 11.1229 0 -0.541525
461 1 38.5307 11.1229 0 0.503053
463 1 39.8151 11.1229 0 1.71824
465 1 41.0994 11.1229 0 -0.29002
467 1 42.3838 11.1229 0 1.01129
469 1 43.6681 11.1229 0 -1.62877
471 1 44.9525 11.1229 0 -0.712118
473 1 46.2368 11.1229 0 1.27728
475 1 47.5212 11.1229 0 -0.190183
477 1 48.8056 11.1229 0 -0.764753
479 1 50.0899 11.1229 0 0.563321
402 1 0.642178 12.2351 0 0.404228
404 1 1.92654 12.2351 0 0.730625
406 1 3.21089 12.2351 0 -0.61799
408 1 4.49525 12.2351 0 1.071
410 1 5.77961 12.2351 0 0.276075
412 1 7.06396 12.2351 0 -0.971695
414 1 8.34832 12.2351 0 0.184713
416 1 9.63268 12.2351 0 1.45034
418 1 10.917 12.2351 0 -1.54157
420 1 12.2014 12.2351 0 1.18071
422 1 13.4857 12.2351 0 -0.240059
424 1 14.7701 12.2351 0 -1.31814
444 1 27.6137 12.2351 0 1.46288
446 1 28.898 12.2351 0 0.37281
448 1 30.1824 12.2351 0 -1.69694
450 1 31.4667 12.2351 0 0.372411
452 1 32.7511 12.2351 0 1.28517
454 1 34.0355 12.2351 0 1.16712
456 1 35.3198 12.2351 0 0.937931
458 1 36.6042 12.2351 0 -0.478609
460 1 37.8885 12.2351 0 -0.0525676
462 1 39.1729 12.2351 0 0.164611
464 1 40.4572 12.2351 0 0.00817918
466 1 41.7416 12.2351 0 -0.683881
468 1 43.026 12.2351 0 -1.36658
470 1 44.3103 12.2351 0 0.109694
472 1 45.5947 12.2351 0 -1.57949
474 1 46.879 12.2351 0 -0.560123
476 1 48.1634 12.2351 0 -0.00598976
478 1 49.4477 12.2351 0 -0.872136
480 1 50.7321 12.2351 0 0.767447
481 1 0 13.3474 0 -1.16508
483 1 1.28436 13.3474 0 1.02537
485 1 2.56871 13.3474 0 0.969573
487 1 3.85307 13.3474 0 1.15502
489 1 5.13743 13.3474 0 1.50006
491 1 6.42178 13.3474 0 0.398666
493 1 7.70614 13.3474 0 1.43836
495 1 8.9905 13.3474 0 -0.569581
497 1 10.2749 13.3474 0 1.13116
499 1 11.5592 13.3474 0 -0.328633
501 1 12.8436 13.3474 0 0.918737
503 1 14.1279 13.3474 0 0.49226
505 1 15.4123 13.3474 0 0.99103
525 1 28.2558 13.3474 0 0.54011
527 1 29.5402 13.3474 0 -0.648857
529 1 30.8246 13.3474 0 -1.31106
531 1 32.1089 13.3474 0 -1.62594
533 1 33.3933 13.3474 0 0.55344
535 1 34.6776 13.3474 0 -0.820916
537 1 35.962 13.3474 0 -0.50381
539 1 37.2463 13.3474 0 0.39161
541 1 38.5307 13.3474 0 -0.662404
543 1 39.8151 13.3474 0 -1.66072
545 1 41.0994 13.3474 0 -1.03121
547 1 42.3838 13.3474 0 0.789956
549 1 43.6681 13.3474 0 0.880967
551 1 44.9525 13.3474 0 -1.47732
553 1 46.2368 13.3474 0 1.17975
555 1 47.5212 13.3474 0 1.63293
557 1 48.8056 13.3474 0 -0.717524
559 1 50.0899 13.3474 0 0.118761
482 1 0.642178 14.4597 0 1.2942
484 1 1.92654 14.4597 0 0.0531437
486 1 3.21089 14.4597 0 1.70163
488 1 4.49525 14.4597 0 -1.44577
490 1 5.77961 14.4597 0 -0.987483
492 1 7.06396 14.4597 0 -1.2722
494 1 8.34832 14.4597 0 0.404941
496 1 9.63268 14.4597 0 1.38576
498 1 10.917 14.4597 0 0.0312163
500 1 12.2014 14.4597 0 0.594122
502 1 13.4857 14.4597 0 -0.574105
504 1 14.7701 14.4597 0 -0.67586
506 1 16.0545 14.4597 0 -0.567987
526 1 28.898 14.4597 0 -0.136716
528 1 30.1824 14.4597 0 0.465646
530 1 31.4667 14.4597 0 -1.43528
532 1 32.7511 14.4597 0 -0.242015
534 1 34.0355 14.4597 0 -0.304357
536 1 35.3198 14.4597 0 1.66359
538 1 36.6042 14.4597 0 -0.684229
540 1 37.8885 14.4597 0 -0.826378
542 1 39.1729 14.4597 0 -1.53874
544 1 40.4572 14.4597 0 -1.41737
546 1 41.7416 14.4597 0 0.525296
548 1 43.026 14.4597 0 -0.10254
550 1 44.3103 14.4597 0 -0.406253
552 1 45.5947 14.4597 0 -0.609519
554 1 46.879 14.4597 0 -1.32158
556 1 48.1634 14.4597 0 0.986177
558 1 49.4477 14.4597 0 -1.64353
560 1 50.7321 14.4597 0 -0.0389023
561 1 0 15.572 0 -1.29696
563 1 1.28436 15.572 0 0.709219
565 1 2.56871 15.572 0 0.173148
567 1 3.85307 15.572 0 1.42474
569 1 5.13743 15.572 0 -1.16722
571 1 6.42178 15.572 0 1.50097
573 1 7.70614 15.572 0 0.399704
575 1 8.9905 15.572 0 1.53926
577 1 10.2749 15.572 0 1.61438
579 1 11.5592 15.572 0 -0.374909
581 1 12.8436 15.572 0 -1.56887
583 1 14.1279 15.572 0 0.821852
585 1 15.4123 15.572 0 0.548364
587 1 16.6966 15.572 0 -0.592951
607 1 29.5402 15.572 0 0.705482
609 1 30.8246 15.572 0 -0.198559
611 1 32.1089 15.572 0 -0.879662
613 1 33.3933 15.572 0 -0.738393
615 1 34.6776 15.572 0 -0.835891
617 1 35.962 15.572 0 -0.828027
619 1 37.2463 15.572 0 -0.977291
621 1 38.5307 15.572 0 -0.918835
623 1 39.8151 15.572 0 -1.64572
625 1 41.0994 15.572 0 1.55851
627 1 42.3838 15.572 0 0.510991
629 1 43.6681 15.572 0 -0.165407
631 1 44.9525 15.572 0 -0.855753
633 1 46.2368 15.572 0 -1.04466
635 1 47.5212 15.572 0 0.646586
637 1 48.8056 15.572 0 0.73811
639 1 50.0899 15.572 0 -1.36864
562 1 0.642178 16.6843 0 -1.42246
564 1 1.92654 16.6843 0 -1.7174
566 1 3.21089 16.6843 0 1.3317
568 1 4.49525 16.6843 0 -1.04978
570 1 5.77961 16.6843 0 -0.19416
572 1 7.06396 16.6843 0 -0.122447
574 1 8.34832 16.6843 0 0.865361
576 1 9.63268 16.6843 0 0.369777
578 1 10.917 16.6843 0 -1.5339
580 1 12.2014 16.6843 0 0.55794
582 1 13.4857 16.6843 0 0.419062
584 1 14.7701 16.6843 0 -0.0744387
586 1 16.0545 16.6843 0 0.114603
588 1 17.3388 16.6843 0 -0.339563
590 1 18.6232 16.6843 0 -0.165483
592 1 19.9075 16.6843 0 1.54984
594 1 21.1919 16.6843 0 -1.49823
596 1 22.4762 16.6843 0 -1.37878
598 1 23.7606 16.6843 0 -0.441268
600 1 25.045 16.6843 0 -0.855355
602 1 26.3293 16.6843 0 -0.64478
604 1 27.6137 16.6843 0 -0.230783
606 1 28.898 16.6843 0 -1.64664
608 1 30.1824 16.6843 0 0.994086
610 1 31.4667 16.6843 0 -0.319007
612 1 32.7511 16.6843 0 0.150368
614 1 34.0355 16.6843 0 1.15367
616 1 35.3198 16.6843 0 0.688971
618 1 36.6042 16.6843 0 0.688626
620 1 37.8885 16.6843 0 0.304154
622 1 39.1729 16.6843 0 0.302946
624 1 40.4572 16.6843 0 1.37635
626 1 41.7416 16.6843 0 -0.640256
628 1 43.026 16.6843 0 0.317097
630 1 44.3103 16.6843 0 1.53345
632 1 45.5947 16.6843 0 -0.994308
634 1 46.879 16.6843 0 1.07926
636 1 48.1634 16.6843 0 -0.0448554
638 1 49.4477 16.6843 0 0.829085
640 1 50.7321 16.6843 0 -0.0400419
641 1 0 17.7966 0 -0.0103905
643 1 1.28436 17.7966 0 -1.00126
645 1 2.56871 17.7966 0 0.987981
647 1 3.85307 17.7966 0 0.311237
649 1 5.13743 17.7966 0 -0.502681
651 1 6.42178 17.7966 0 1.48149
653 1 7.70614 17.7966 0 0.42244
655 1 8.9905 17.7966 0 -0.996942
657 1 10.2749 17.7966 0 -0.204171
659 1 11.5592 17.7966 0 1.41668
661 1 12.8436 17.7966 0 -1.00683
663 1 14.1279 17.7966 0 1.56342
665 1 15.4123 17.7966 0 0.450135
667 1 16.6966 17.7966 0 -0.664841
669 1 17.981 17.7966 0 1.19527
671 1 19.2654 17.7966 0 -1.38824
673 1 20.5497 17.7966 0 0.398577
675 1 21.8341 17.7966 0 -1.07439
677 1 23.1184 17.7966 0 1.64521
679 1 24.4028 17.7966 0 -1.52112
681 1 25.6871 17.7966 0 0.962515
683 1 26.9715 17.7966 0 -0.0954042
685 1 28.2558 17.7966 0 -0.568383
687 1 29.5402 17.7966 0 0.441336
689 1 30.8246 17.7966 0 -1.34752
691 1 32.1089 17.7966 0 -1.24344
693 1 33.3933 17.7966 0 -1.41732
695 1 34.6776 17.7966 0 1.06178
697 1 35.962 17.7966 0 -0.866582
699 1 37.2463 17.7966 0 -1.4759
701 1 38.5307 17.7966 0 1.18113
703 1 39.8151 17.7966 0 -0.928436
705 1 41.0994 17.7966 0 1.61853
707 1 42.3838 17.7966 0 1.41939
709 1 43.6681 17.7966 0 -0.0983082
711 1 44.9525 17.7966 0 -1.69916
713 1 46.2368 17.7966 0 -0.646478
715 1 47.5212 17.7966 0 -0.911199
717 1 48.8056 17.7966 0 1.60868
719 1 50.0899 17.7966 0 0.955488
642 1 0.642178 18.9089 0 -1.11045
644 1 1.92654 18.9089 0 1.21746
646 1 3.21089 18.9089 0 1.13797
648 1 4.49525 18.9089 0 0.507226
650 1 5.77961 18.9089 0 -1.08184
652 1 7.06396 18.9089 0 -1.62326
654 1 8.34832 18.9089 0 0.671961
656 1 9.63268 18.9089 0 0.12232
658 1 10.917 18.9089 0 1.50301
660 1 12.2014 18.9089 0 -0.994242
662 1 13.4857 18.9089 0 1.45139
664 1 14.7701 18.9089 0 -1.43998
666 1 16.0545 18.9089 0 -1.29173
668 1 17.3388 18.9089 0 -0.512374
670 1 18.6232 18.9089 0 -0.0607919
672 1 19.9075 18.9089 0 1.63904
674 1 21.1919 18.9089 0 -0.550947
676 1 22.4762 18.9089 0 -0.342296
678 1 23.7606 18.9089 0 1.70899
680 1 25.045 18.9089 0 -0.110253
682 1 26.3293 18.9089 0 -0.916116
684 1 27.6137 18.9089 0 0.695087
686 1 28.898 18.9089 0 1.17997
688 1 30.1824 18.9089 0 1.18093
690 1 31.4667 18.9089 0 -1.60261
692 1 32.7511 18.9089 0 -1.30858
694 1 34.0355 18.9089 0 0.822814
696 1 35.3198 18.9089 0 -0.759738
698 1 36.6042 18.9089 0 1.68913
700 1 37.8885 18.9089 0 -1.53698
702 1 39.1729 18.9089 0 1.33663
704 1 40.4572 18.9089 0 0.16034
706 1 41.7416 18.9089 0 -1.01785
708 1 43.026 18.9089 0 -0.00211065
710 1 44.3103 18.9089 0 0.823589
712 1 45.5947 18.9089 0 -0.238634
714 1 46.879 18.9089 0 1.43784
716 1 48.1634 18.9089 0 1.50467
718 1 49.4477 18.9089 0 -0.00147309
720 1 50.7321 18.9089 0 -0.72858
721 3 0 20.0211 0 0
723 3 1.28436 20.0211 0 0
725 3 2.56871 20.0211 0 0
727 3 3.85307 20.0211 0 0
729 3 5.13743 20.0211 0 0
731 3 6.42178 20.0211 0 0
733 3 7.70614 20.0211 0 0
735 3 8.9905 20.0211 0 0
737 3 10.2749 20.0211 0 0
739 3 11.5592 20.0211 0 0
741 3 12.8436 20.0211 0 0
743 3 14.1279 20.0211 0 0
745 3 15.4123 20.0211 0 0
747 3 16.6966 20.0211 0 0
749 3 17.981 20.0211 0 0
751 3 19.2654 20.0211 0 0
753 3 20.5497 20.0211 0 0
755 3 21.8341 20.0211 0 0
757 3 23.1184 20.0211 0 0
759 3 24.4028 20.0211 0 0
603 3 25.6871 20.0211 0 0
599 3 26.9715 20.0211 0 0
595 3 28.2558 20.0211 0 0
591 3 29.5402 20.0211 0 0
524 3 30.8246 20.0211 0 0
522 3 32.1089 20.0211 0 0
520 3 33.3933 20.0211 0 0
518 3 34.6776 20.0211 0 0
516 3 35.962 20.0211 0 0
514 3 37.2463 20.0211 0 0
512 3 38.5307 20.0211 0 0
510 3 39.8151 20.0211 0 0
508 3 41.0994 20.0211 0 0
442 3 42.3838 20.0211 0 0
440 3 43.6681 20.0211 0 0
438 3 44.9525 20.0211 0 0
436 3 46.2368 20.0211 0 0
434 3 47.5212 20.0211 0 0
432 3 48.8056 20.0211 0 0
430 3 50.0899 20.0211 0 0
722 3 0.642178 21.1334 0 0
724 3 1.92654 21.1334 0 0
726 3 3.21089 21.1334 0 0
728 3 4.49525 21.1334 0 0
730 3 5.77961 21.1334 0 0
732 3 7.06396 21.1334 0 0
734 3 8.34832 21.1334 0 0
736 3 9.63268 21.1334 0 0
738 3 10.917 21.1334 0 0
740 3 12.2014 21.1334 0 0
742 3 13.4857 21.1334 0 0
744 3 14.7701 21.1334 0 0
746 3 16.0545 21.1334 0 0
748 3 17.3388 21.1334 0 0
750 3 18.6232 21.1334 0 0
752 3 19.9075 21.1334 0 0
754 3 21.1919 21.1334 0 0
756 3 22.4762 21.1334 0 0
758 3 23.7606 21.1334 0 0
605 3 25.045 21.1334 0 0
601 3 26.3293 21.1334 0 0
597 3 27.6137 21.1334 0 0
593 3 28.898 21.1334 0 0
589 3 30.1824 21.1334 0 0
523 3 31.4667 21.1334 0 0
521 3 32.7511 21.1334 0 0
519 3 34.0355 21.1334 0 0
517 3 35.3198 21.1334 0 0
515 3 36.6042 21.1334 0 0
513 3 37.8885 21.1334 0 0
511 3 39.1729 21.1334 0 0
509 3 40.4572 21.1334 0 0
507 3 41.7416 21.1334 0 0
441 3 43.026 21.1334 0 0
439 3 44.3103 21.1334 0 0
437 3 45.5947 21.1334 0 0
435 3 46.879 21.1334 0 0
433 3 48.1634 21.1334 0 0
431 3 49.4477 21.1334 0 0
429 3 50.7321 21.1334 0 0
428 3 0 22.2457 0 0
427 3 1.28436 22.2457 0 0
426 3 2.56871 22.2457 0 0
425 3 3.85307 22.2457 0 0
360 3 5.13743 22.2457 0 0
359 3 6.42178 22.2457 0 0
358 3 7.70614 22.2457 0 0
357 3 8.9905 22.2457 0 0
356 3 10.2749 22.2457 0 0
355 3 11.5592 22.2457 0 0
354 3 12.8436 22.2457 0 0
353 3 14.1279 22.2457 0 0
352 3 15.4123 22.2457 0 0
351 3 16.6966 22.2457 0 0
350 3 17.981 22.2457 0 0
349 3 19.2654 22.2457 0 0
348 3 20.5497 22.2457 0 0
347 3 21.8341 22.2457 0 0
346 3 23.1184 22.2457 0 0
345 3 24.4028 22.2457 0 0
344 3 25.6871 22.2457 0 0
343 3 26.9715 22.2457 0 0
278 3 28.2558 22.2457 0 0
277 3 29.5402 22.2457 0 0
276 3 30.8246 22.2457 0 0
275 3 32.1089 22.2457 0 0
274 3 33.3933 22.2457 0 0
273 3 34.6776 22.2457 0 0
272 3 35.962 22.2457 0 0
271 3 37.2463 22.2457 0 0
270 3 38.5307 22.2457 0 0
269 3 39.8151 22.2457 0 0
268 3 41.0994 22.2457 0 0
267 3 42.3838 22.2457 0 0
266 3 43.6681 22.2457 0 0
265 3 44.9525 22.2457 0 0
264 3 46.2368 22.2457 0 0
263 3 47.5212 22.2457 0 0
262 3 48.8056 22.2457 0 0
261 3 50.0899 22.2457 0 0
ITEM: TIMESTEP
500
ITEM: NUMBER OF ATOMS
759
ITEM: BOX BOUNDS pp ss pp
0.0000000000000000e+00 5.1374269009840255e+01
-2.2245711031688635e-03 2.2473830089660780e+01
-3.2108918131150160e-01 3.2108918131150160e-01
ITEM: ATOMS id type x y z vx
1 2 0 0 0 0
3 2 1.28436 0 0 0
5 2 2.56871 0 0 0
7 2 3.85307 0 0 0
9 2 5.13743 0 0 0
11 2 6.42178 0 0 0
13 2 7.70614 0 0 0
15 2 8.9905 0 0 0
17 2 10.2749 0 0 0
19 2 11.5592 0 0 0
21 2 12.8436 0 0 0
23 2 14.1279 0 0 0
25 2 15.4123 0 0 0
27 2 16.6966 0 0 0
29 2 17.981 0 0 0
31 2 19.2654 0 0 0
33 2 20.5497 0 0 0
35 2 21.8341 0 0 0
37 2 23.1184 0 0 0
39 2 24.4028 0 0 0
41 2 25.6871 0 0 0
43 2 26.9715 0 0 0
45 2 28.2558 0 0 0
47 2 29.5402 0 0 0
49 2 30.8246 0 0 0
51 2 32.1089 0 0 0
53 2 33.3933 0 0 0
55 2 34.6776 0 0 0
57 2 35.962 0 0 0
59 2 37.2463 0 0 0
61 2 38.5307 0 0 0
63 2 39.8151 0 0 0
65 2 41.0994 0 0 0
67 2 42.3838 0 0 0
69 2 43.6681 0 0 0
71 2 44.9525 0 0 0
73 2 46.2368 0 0 0
75 2 47.5212 0 0 0
77 2 48.8056 0 0 0
79 2 50.0899 0 0 0
2 2 0.642178 1.11229 0 0
4 2 1.92654 1.11229 0 0
6 2 3.21089 1.11229 0 0
8 2 4.49525 1.11229 0 0
10 2 5.77961 1.11229 0 0
12 2 7.06396 1.11229 0 0
14 2 8.34832 1.11229 0 0
16 2 9.63268 1.11229 0 0
18 2 10.917 1.11229 0 0
20 2 12.2014 1.11229 0 0
22 2 13.4857 1.11229 0 0
24 2 14.7701 1.11229 0 0
26 2 16.0545 1.11229 0 0
28 2 17.3388 1.11229 0 0
30 2 18.6232 1.11229 0 0
32 2 19.9075 1.11229 0 0
34 2 21.1919 1.11229 0 0
36 2 22.4762 1.11229 0 0
38 2 23.7606 1.11229 0 0
40 2 25.045 1.11229 0 0
42 2 26.3293 1.11229 0 0
44 2 27.6137 1.11229 0 0
46 2 28.898 1.11229 0 0
48 2 30.1824 1.11229 0 0
50 2 31.4667 1.11229 0 0
52 2 32.7511 1.11229 0 0
54 2 34.0355 1.11229 0 0
56 2 35.3198 1.11229 0 0
58 2 36.6042 1.11229 0 0
60 2 37.8885 1.11229 0 0
62 2 39.1729 1.11229 0 0
64 2 40.4572 1.11229 0 0
66 2 41.7416 1.11229 0 0
68 2 43.026 1.11229 0 0
70 2 44.3103 1.11229 0 0
72 2 45.5947 1.11229 0 0
74 2 46.879 1.11229 0 0
76 2 48.1634 1.11229 0 0
78 2 49.4477 1.11229 0 0
80 2 50.7321 1.11229 0 0
81 2 0 2.22457 0 0
83 2 1.28436 2.22457 0 0
85 2 2.56871 2.22457 0 0
87 2 3.85307 2.22457 0 0
89 2 5.13743 2.22457 0 0
91 2 6.42178 2.22457 0 0
93 2 7.70614 2.22457 0 0
95 2 8.9905 2.22457 0 0
97 2 10.2749 2.22457 0 0
99 2 11.5592 2.22457 0 0
101 2 12.8436 2.22457 0 0
103 2 14.1279 2.22457 0 0
105 2 15.4123 2.22457 0 0
107 2 16.6966 2.22457 0 0
109 2 17.981 2.22457 0 0
111 2 19.2654 2.22457 0 0
113 2 20.5497 2.22457 0 0
115 2 21.8341 2.22457 0 0
117 2 23.1184 2.22457 0 0
119 2 24.4028 2.22457 0 0
121 2 25.6871 2.22457 0 0
123 2 26.9715 2.22457 0 0
125 2 28.2558 2.22457 0 0
127 2 29.5402 2.22457 0 0
129 2 30.8246 2.22457 0 0
131 2 32.1089 2.22457 0 0
133 2 33.3933 2.22457 0 0
135 2 34.6776 2.22457 0 0
137 2 35.962 2.22457 0 0
139 2 37.2463 2.22457 0 0
141 2 38.5307 2.22457 0 0
143 2 39.8151 2.22457 0 0
145 2 41.0994 2.22457 0 0
147 2 42.3838 2.22457 0 0
149 2 43.6681 2.22457 0 0
151 2 44.9525 2.22457 0 0
153 2 46.2368 2.22457 0 0
155 2 47.5212 2.22457 0 0
157 2 48.8056 2.22457 0 0
159 2 50.0899 2.22457 0 0
82 1 1.28202 3.32629 0 1.36083
84 1 2.51239 3.5908 0 0.584586
86 1 3.99471 3.39707 0 0.666943
88 1 5.67681 3.11904 0 0.59273
90 1 6.57016 3.90757 0 0.867783
92 1 7.46436 3.24922 0 0.103113
94 1 8.48327 3.72021 0 0.840581
96 1 10.0804 3.28394 0 0.464464
98 1 11.4698 3.32019 0 0.507748
100 1 12.7516 3.23834 0 0.148306
102 1 13.8563 3.26841 0 1.34019
104 1 14.9431 3.33866 0 0.660308
106 1 16.1139 3.54784 0 1.13821
108 1 17.818 3.28481 0 0.807146
110 1 19.1577 3.44937 0 0.608414
112 1 20.68 3.38696 0 1.21853
114 1 21.921 3.4126 0 0.843839
116 1 23.2508 3.43781 0 1.05456
118 1 24.3668 3.30658 0 0.587219
120 1 25.5446 3.60597 0 -0.492145
122 1 26.6567 3.30724 0 0.533971
124 1 27.7283 3.4411 0 0.152985
126 1 29.2918 3.37955 0 0.469938
128 1 31.0415 3.41179 0 1.76981
130 1 32.1516 3.44803 0 1.69813
132 1 33.6334 3.46299 0 1.79725
134 1 34.7729 3.43904 0 1.10253
136 1 36.6782 3.1771 0 -0.207571
138 1 38.072 3.46671 0 0.624034
140 1 39.3939 3.19885 0 0.633779
142 1 40.5101 4.05278 0 1.55015
144 1 41.6337 3.21857 0 1.0939
146 1 42.8131 3.36845 0 0.227006
148 1 44.2549 3.14737 0 0.63832
150 1 45.3604 3.31042 0 0.940196
152 1 46.524 3.37309 0 0.737244
154 1 47.603 3.26155 0 1.69433
156 1 48.5929 3.29127 0 1.09395
158 1 50.4153 3.29559 0 0.517292
160 1 0.10484 3.26598 0 0.901311
161 1 0.430481 4.52728 0 0.812485
163 1 1.59034 4.8564 0 1.25882
165 1 2.95215 4.7672 0 -0.0256797
167 1 4.24537 4.46734 0 1.57628
169 1 5.76477 4.53167 0 0.809841
171 1 7.62439 4.37056 0 1.46589
173 1 8.57078 4.86166 0 1.19232
175 1 9.41699 4.14398 0 0.880482
177 1 10.7174 4.55145 0 1.44976
179 1 12.4848 4.28339 0 1.94821
181 1 13.5127 4.53662 0 1.58648
183 1 14.7477 4.50772 0 0.574976
185 1 15.8728 4.62654 0 0.961871
187 1 17.3525 4.20102 0 0.639188
189 1 18.6557 4.38086 0 0.345408
191 1 19.974 4.32794 0 1.4596
193 1 21.0634 4.40727 0 1.17901
195 1 22.3967 4.54752 0 1.35707
197 1 24.0703 4.50525 0 0.745863
199 1 25.2645 5.03485 0 0.455475
201 1 26.496 4.68332 0 0.691697
203 1 27.6424 4.55649 0 -0.546294
205 1 28.729 4.39805 0 0.771369
207 1 30.0887 4.11002 0 0.280365
209 1 31.3892 4.76033 0 0.52385
211 1 32.855 4.31549 0 0.205211
213 1 34.1983 4.47924 0 0.511882
215 1 35.699 4.57607 0 1.05037
217 1 37.012 4.27455 0 0.379143
219 1 37.8702 5.06498 0 1.55118
221 1 38.9313 4.44242 0 0.919655
223 1 41.1278 5.04685 0 0.597001
225 1 42.1539 4.51708 0 1.56452
227 1 43.6995 4.10556 0 1.29205
229 1 44.9774 4.96112 0 1.13377
231 1 45.8382 4.34211 0 0.543878
233 1 47.0465 4.40028 0 -0.215512
235 1 48.1341 4.42093 0 0.870028
237 1 49.483 4.00011 0 1.26902
239 1 50.5955 4.54528 0 1.08227
162 1 0.692877 6.25135 0 0.653735
164 1 2.39617 5.78809 0 1.10705
166 1 3.95969 5.65362 0 0.730342
168 1 5.00616 5.51902 0 1.31419
170 1 6.64285 5.07408 0 0.64127
172 1 8.02067 5.84902 0 1.57863
174 1 9.67623 5.32872 0 -0.153129
176 1 10.9422 5.66481 0 0.914845
178 1 11.7758 5.06927 0 1.08461
180 1 12.7105 5.60602 0 0.651526
182 1 13.9518 5.53554 0 0.443581
184 1 15.1641 5.60204 0 0.888106
186 1 16.5429 5.52734 0 0.714518
188 1 17.7188 5.61434 0 0.853689
190 1 18.9138 5.46973 0 1.85821
192 1 19.983 5.43026 0 0.644264
194 1 21.5293 5.35748 0 0.164473
196 1 22.8226 5.56655 0 0.25034
198 1 24.0319 5.57809 0 0.769525
200 1 25.5619 6.0734 0 0.88492
202 1 27.1908 5.97103 0 0.679813
204 1 28.2989 5.43108 0 0.948139
206 1 29.4874 5.08666 0 1.26034
208 1 30.6033 5.57989 0 0.83781
210 1 32.1681 5.54792 0 1.40124
212 1 33.5851 5.40231 0 0.232437
214 1 34.9821 5.59719 0 1.1502
216 1 36.8087 5.38761 0 0.581391
218 1 37.7983 6.21473 0 1.34857
220 1 38.8174 5.57615 0 1.80682
222 1 40.1091 5.08934 0 0.4439
224 1 40.6914 6.45349 0 0.931354
226 1 42.9447 5.22867 0 0.5067
228 1 44.0808 5.66852 0 1.90516
230 1 45.5171 5.84878 0 0.470878
232 1 46.5231 5.32186 0 1.19338
234 1 47.8299 5.47644 0 0.12215
236 1 49.0073 5.13774 0 1.82212
238 1 50.0618 5.38063 0 1.6452
240 1 51.2291 5.49821 0 1.34898
241 1 0.44325 7.49143 0 0.763982
243 1 1.65554 6.8473 0 1.8519