read_data       ${fname}
read_data       PE_nc10_cl1000.dat
Reading data file ...
  orthogonal box = (0 0 0) to (80.0586 80.0586 80.0586)
  2 by 1 by 3 MPI processor grid
  reading atoms ...
  10000 atoms
  scanning bonds ...
  1 = max bonds/atom
  scanning angles ...
  1 = max angles/atom
  scanning dihedrals ...
  1 = max dihedrals/atom
  reading bonds ...
  9990 bonds
  reading angles ...
  9980 angles
  reading dihedrals ...
  9970 dihedrals
Finding 1-2 1-3 1-4 neighbors ...
  special bond factors lj:    0        0        0       
  special bond factors coul:  0        0        0       
     2 = max # of 1-2 neighbors
     2 = max # of 1-3 neighbors
     4 = max # of 1-4 neighbors
     6 = max # of special neighbors
  special bonds CPU = 0.005 seconds
  read_data CPU = 0.253 seconds

# Dreiding potential information
neighbor        0.4 bin
neigh_modify    every 10 one 10000
bond_style      harmonic
bond_coeff      1 350 1.53
angle_style     harmonic
angle_coeff     1 60 109.5
dihedral_style  multi/harmonic
dihedral_coeff  1 1.73 -4.49 0.776 6.99 0.0
pair_style      lj/cut 10.5
pair_coeff      1 1 0.112 4.01 10.5

# Equilibration Stage 1 (Langevin dynamics at 500 K)
velocity        all create 500.0 1231
fix             1 all nve/limit 0.05
fix             2 all langevin 500.0 500.0 10.0 904297
thermo_style    custom step temp press
thermo          100
timestep        1
run             10000
Generated 0 of 0 mixed pair_coeff terms from geometric mixing rule
Neighbor list info ...
  update every 10 steps, delay 10 steps, check yes
  max neighbors/atom: 10000, page size: 100000
  master list distance cutoff = 10.9
  ghost atom cutoff = 10.9
  binsize = 5.45, bins = 15 15 15
  1 neighbor lists, perpetual/occasional/extra = 1 0 0
  (1) pair lj/cut, perpetual
      attributes: half, newton on
      pair build: half/bin/newton
      stencil: half/bin/3d
      bin: standard
WARNING: Inconsistent image flags (src/domain.cpp:819)
Per MPI rank memory allocation (min/avg/max) = 7.319 | 7.968 | 9.071 Mbytes
   Step          Temp          Press     
         0   500            1.8475472e+08
       100   795.11697      67327.51     
       200   555.08981      39653.995    
       300   521.8589       28563.625    
       400   521.74057      22724.961    
       500   510.52479      19268.409    
       600   495.7114       16580.737    
       700   500.89449      14898.434    
       800   490.53702      13050.961    
       900   507.96304      12090.149    
      1000   501.8154       10924.403    
      1100   493.77358      9996.7828    
      1200   498.1935       9480.9971    
      1300   502.29088      8862.0203    
      1400   503.72807      8456.6315    
      1500   501.97475      7791.8082    
      1600   508.61802      7731.7354    
      1700   503.64768      7133.9326    
      1800   498.80947      6874.3546    
      1900   500.43532      6290.4418    
      2000   498.5674       5987.7422    
      2100   498.10574      6173.5418    
      2200   504.42649      6058.1651    
      2300   501.10453      5863.7233    
      2400   505.61669      5383.1202    
      2500   498.61099      5344.6121    
      2600   497.49454      5152.364     
      2700   499.32467      5222.0909    
      2800   503.23793      4901.9167    
      2900   507.19828      4856.8403    
      3000   505.32048      4610.5205    
      3100   502.38553      4542.2342    
      3200   497.07017      4322.3647    
      3300   500.36832      4178.042     
      3400   499.5318       4177.5261    
      3500   501.17919      4187.9624    
      3600   498.32002      3648.3161    
      3700   501.50155      3891.2101    
      3800   493.35858      3589.3253    
      3900   504.12426      3920.3114    
      4000   504.64744      4129.1607    
      4100   493.56294      3289.3312    
      4200   493.52784      3422.5224    
      4300   501.38541      3401.6001    
      4400   497.58037      3808.3713    
      4500   500.82808      3098.4979    
      4600   500.81449      2956.9688    
      4700   504.28943      3298.4879    
      4800   502.72001      2879.5722    
      4900   504.55726      3228.2277    
      5000   502.07813      3091.2803    
      5100   500.3645       2925.6037    
      5200   499.27378      2936.4735    
      5300   497.54047      2705.2276    
      5400   503.88469      2762.1526    
      5500   503.37754      2931.3581    
      5600   501.37414      2498.6087    
      5700   499.92917      2678.2815    
      5800   499.94906      2847.1382    
      5900   497.42221      2372.5297    
      6000   502.17575      2501.6343    
      6100   499.6228       2581.6289    
      6200   501.94671      2260.3606    
      6300   504.85156      2435.7212    
      6400   498.83655      2200.2565    
      6500   509.65014      2158.4833    
      6600   502.45205      2520.7424    
      6700   498.22308      2660.3512    
      6800   500.24883      2077.298     
      6900   501.37801      2138.0683    
      7000   502.99559      2047.9137    
      7100   503.09336      2199.8538    
      7200   499.49932      2059.8639    
      7300   501.09631      2181.6941    
      7400   504.04147      2111.5511    
      7500   504.30695      1928.6136    
      7600   496.93826      2144.7621    
      7700   503.92877      1942.5237    
      7800   504.79716      1936.6573    
      7900   504.69024      2135.2977    
      8000   505.57827      1932.2529    
      8100   505.65677      1887.5853    
      8200   499.23726      1999.6391    
      8300   504.08545      1914.0184    
      8400   493.035        1946.8603    
      8500   494.9721       1882.0635    
      8600   501.83669      1811.7135    
      8700   501.66905      1601.0998    
      8800   499.2564       1499.4405    
      8900   498.71535      1727.6418    
      9000   498.65305      1687.6784    
      9100   495.44579      1840.342     
      9200   504.36963      1739.476     
      9300   498.19002      1547.2094    
      9400   503.27235      1644.6693    
      9500   503.01735      1585.1783    
      9600   497.07884      1741.7932    
      9700   505.83575      2177.0678    
      9800   495.25932      1631.7256    
      9900   512.77876      1530.498     
     10000   503.56324      1691.4409    
Loop time of 40.999 on 6 procs for 10000 steps with 10000 atoms

Performance: 21.074 ns/day, 1.139 hours/ns, 243.909 timesteps/s
97.5% CPU use with 6 MPI tasks x 1 OpenMP threads

MPI task timing breakdown:
Section |  min time  |  avg time  |  max time  |%varavg| %total
---------------------------------------------------------------
Pair    | 7.6658     | 13.319     | 20.45      | 119.4 | 32.49
Bond    | 1.6489     | 2.1312     | 2.8717     |  29.3 |  5.20
Neigh   | 6.44       | 6.4479     | 6.4568     |   0.2 | 15.73
Comm    | 10.256     | 18.306     | 24.519     | 114.1 | 44.65
Output  | 0.0073341  | 0.01021    | 0.012316   |   1.9 |  0.02
Modify  | 0.46102    | 0.59386    | 0.79977    |  15.7 |  1.45
Other   |            | 0.1908     |            |       |  0.47

Nlocal:        1666.67 ave        2410 max        1205 min
Histogram: 2 0 1 0 1 1 0 0 0 1
Nghost:        4436.33 ave        5413 max        3676 min
Histogram: 2 0 0 1 0 1 0 1 0 1
Neighs:         119641 ave      193764 max       66803 min
Histogram: 2 0 0 1 0 2 0 0 0 1

Total # of neighbors = 717844
Ave neighs/atom = 71.7844
Ave special neighs/atom = 5.988
Neighbor list builds = 813
Dangerous builds = 627
unfix           1
unfix           2
write_restart   restart.${simname}.dreiding1
write_restart   restart.PE_nc10_cl1000.dreiding1
System init for write_restart ...
Generated 0 of 0 mixed pair_coeff terms from geometric mixing rule

# Equilibration Stage 2 (NPT dynamics at 500 K)
fix             1 all npt temp 500.0 500.0 50 iso 0 0 1000 drag 2
fix             2 all momentum 1 linear 1 1 1
thermo_style    custom step temp press
thermo          100
timestep        0.5
reset_timestep  0
run             50000
Generated 0 of 0 mixed pair_coeff terms from geometric mixing rule
WARNING: Inconsistent image flags (src/domain.cpp:819)
Per MPI rank memory allocation (min/avg/max) = 7.32 | 8.04 | 9.071 Mbytes
   Step          Temp          Press     
         0   503.56324      1691.4409    
       100   505.71412      1263.994     
       200   499.25865      1249.0084    
       300   504.42682      929.4771     
       400   501.84537      840.6343     
       500   513.03147      633.03809    
       600   505.40377      555.12446    
       700   510.58643      399.48066    
       800   506.49181      142.86316    
       900   501.25495      211.35076    
      1000   504.1584       316.63001    
      1100   502.0869      -184.58721    
      1200   504.09236      100.69378    
      1300   502.47384      44.832671    
      1400   500.59489      9.4756464    
      1500   502.81439     -120.67696    
      1600   502.20764     -128.83072    
      1700   502.57044      28.69958     
      1800   499.08869     -84.443615    
      1900   497.95006     -153.32887    
      2000   497.5065       150.14365    
      2100   499.30116     -215.85312    
      2200   498.82603      85.67846     
      2300   509.19734     -251.7578     
      2400   499.24872      46.954834    
      2500   497.767       -50.193787    
      2600   500.47732      41.370931    
      2700   496.82015     -167.91427    
      2800   500.80702      4.0426578    
      2900   494.90137     -316.08978    
      3000   500.01928      109.52883    
      3100   503.73988     -307.4092     
      3200   501.09257      29.723107    
      3300   496.13017     -199.12694    
      3400   501.45326      95.749393    
      3500   501.64117     -221.77883    
      3600   497.62685     -9.1314664    
      3700   496.39492     -33.031142    
      3800   497.8108      -35.753567    
      3900   505.06239     -12.145264    
      4000   498.79767     -193.10378    
      4100   500.8019      -9.3176775    
      4200   496.50069     -193.47765    
      4300   500.64915      202.40353    
      4400   493.8222      -149.13213    
      4500   500.90765     -30.317648    
      4600   500.92057     -189.84591    
      4700   503.57412      132.0348     
      4800   502.28029     -119.81354    
      4900   499.26368     -388.3704     
      5000   497.24505      274.57188    
      5100   498.78264     -356.58584    
      5200   499.3039       121.97296    
      5300   500.10225     -74.222134    
      5400   502.65442     -114.2261     
      5500   499.23894      74.072051    
      5600   496.7733       53.477371    
      5700   501.43286     -263.33392    
      5800   499.81929     -78.726669    
      5900   501.91695     -114.21996    
      6000   501.76633     -7.8770085    
      6100   498.76512     -244.65396    
      6200   499.23359     -21.671143    
      6300   505.26311     -32.089189    
      6400   498.90479     -330.15208    
      6500   500.12684     -94.388162    
      6600   505.74786      111.84436    
      6700   497.18587     -285.99883    
      6800   502.99335      65.779965    
      6900   504.63341      76.590832    
      7000   499.04982     -214.47163    
      7100   500.63439     -38.164445    
      7200   497.69821     -257.92087    
      7300   504.34144      8.4393577    
      7400   502.58046      171.50605    
      7500   496.43633     -76.450692    
      7600   496.64891      171.9748     
      7700   505.73203     -179.623      
      7800   500.24692      154.88832    
      7900   506.65606     -103.18242    
      8000   505.16607     -182.91971    
      8100   503.79299      65.097657    
      8200   497.63443     -15.665758    
      8300   499.17925     -93.487202    
      8400   502.85301     -313.71188    
      8500   502.55002     -0.79074801   
      8600   502.07372      92.814956    
      8700   501.78063     -421.65916    
      8800   500.2002       73.46256     
      8900   499.35998     -110.84324    
      9000   499.75119      6.3378057    
      9100   496.55601     -592.75654    
      9200   505.79856      208.54969    
      9300   498.17148     -17.325818    
      9400   503.70265     -198.14893    
      9500   498.25547     -75.673897    
      9600   495.9534      -136.00958    
      9700   498.8692      -101.63399    
      9800   501.83998     -29.231774    
      9900   496.44935     -59.644981    
     10000   493.27118      19.40763     
     10100   499.05651     -41.094801    
     10200   506.95596     -135.09321    
     10300   506.09969      138.48794    
     10400   505.42883     -355.59855    
     10500   499.2173       184.43072    
     10600   498.80304     -276.62096    
     10700   503.86402      87.880298    
     10800   496.69112     -245.91161    
     10900   500.55145     -172.37255    
     11000   502.09055      57.254887    
     11100   496.21932     -208.51636    
     11200   498.39253     -207.24655    
     11300   502.7934       177.01982    
     11400   501.19483     -291.12948    
     11500   498.56354     -169.52282    
     11600   505.4263       192.14013    
     11700   492.64804     -177.1287     
     11800   501.40756      27.868834    
     11900   498.87726     -6.8747594    
     12000   505.63188     -195.92501    
     12100   498.25595      30.729076    
     12200   500.31906     -64.383364    
     12300   499.65238     -4.4094373    
     12400   501.38934     -138.65266    
     12500   498.89162      323.39264    
     12600   503.09794     -66.756421    
     12700   496.42169      216.7043     
     12800   507.09399     -86.043181    
     12900   501.30691     -191.56845    
     13000   499.39988     -247.69972    
     13100   500.68813      190.92521    
     13200   495.59394     -170.89741    
     13300   500.29864      16.180023    
     13400   500.59281     -57.957707    
     13500   501.58871     -257.30987    
     13600   499.60239      270.36238    
     13700   499.66459     -466.81198    
     13800   502.86597      429.79902    
     13900   499.41782     -725.76624    
     14000   501.6754       209.72425    
     14100   498.97588     -89.603806    
     14200   501.57342     -123.69253    
     14300   502.03999     -175.14648    
     14400   500.48364     -7.0098413    
     14500   504.21851      38.804503    
     14600   504.29714      2.0558701    
     14700   502.30503     -24.021181    
     14800   496.85084     -269.46465    
     14900   498.15773      91.757207    
     15000   505.45961     -270.19725    
     15100   502.05447      104.78039    
     15200   497.44596     -147.51189    
     15300   508.9893      -113.42113    
     15400   495.86582      62.033202    
     15500   501.75367     -281.76128    
     15600   496.08862      159.17594    
     15700   500.11099     -203.93143    
     15800   499.98316     -44.703217    
     15900   499.31864     -66.015575    
     16000   497.31958     -22.882624    
     16100   501.98412     -248.10769    
     16200   499.37814      233.79609    
     16300   498.60172     -254.11841    
     16400   501.16471      42.595952    
     16500   502.60071      47.941515    
     16600   506.34738     -185.97468    
     16700   499.86169     -45.34062     
     16800   501.37793      184.54133    
     16900   500.13861     -30.983379    
     17000   502.09026     -21.40257     
     17100   501.33348      27.074945    
     17200   495.42148     -96.922133    
     17300   500.1108      -77.114317    
     17400   499.88955      41.224984    
     17500   502.46663     -22.451805    
     17600   501.40517     -285.14092    
     17700   501.03973      66.289807    
     17800   497.95426      179.64465    
     17900   499.04761     -367.1681     
     18000   497.69718     -0.41931571   
     18100   502.35362      305.01444    
     18200   502.50484     -332.62447    
     18300   499.62805      220.90796    
     18400   505.13275     -144.2451     
     18500   502.19184      10.439724    
     18600   503.80557      56.518974    
     18700   499.16321     -68.624906    
     18800   497.26159     -129.01333    
     18900   500.56716      311.45377    
     19000   499.75884     -153.25141    
     19100   498.78858     -87.49112     
     19200   498.8798      -151.81826    
     19300   501.7836       162.23999    
     19400   495.81918     -183.96797    
     19500   499.46912     -151.16337    
     19600   498.34228      264.59198    
     19700   503.86656     -310.25138    
     19800   504.34966      158.88925    
     19900   501.25121      21.161104    
     20000   503.87646     -108.88912    
     20100   505.30725     -181.83132    
     20200   501.04158     -65.971376    
     20300   501.64705      77.654347    
     20400   500.66895      76.643045    
     20500   501.44308     -390.07096    
     20600   497.17619      299.22538    
     20700   498.6029       33.498744    
     20800   500.16006     -7.0333154    
     20900   500.09997      290.68807    
     21000   498.46523     -162.58771    
     21100   503.45974     -339.93334    
     21200   502.40772      341.58479    
     21300   501.11467     -639.19003    
     21400   499.14709      199.34503    
     21500   496.5977      -175.48204    
     21600   498.58986      49.809346    
     21700   501.8829      -127.18792    
     21800   498.96299     -41.656841    
     21900   498.54431      36.94277     
     22000   503.15066     -178.93618    
     22100   507.60503     -214.50274    
     22200   500.63685     -31.888277    
     22300   499.9016       87.936511    
     22400   500.52939     -72.009883    
     22500   501.68213      287.16694    
     22600   501.02423     -296.33502    
     22700   497.21295      125.12813    
     22800   500.90433      128.36623    
     22900   499.21598     -426.43189    
     23000   499.45936      261.26469    
     23100   501.16386     -308.69663    
     23200   497.81724      290.92718    
     23300   501.92175     -112.37606    
     23400   504.96788     -110.21668    
     23500   500.92183      132.57235    
     23600   494.52925     -73.263696    
     23700   503.48277      106.56751    
     23800   496.23269     -359.5029     
     23900   502.81935      235.89365    
     24000   496.45744     -473.79626    
     24100   497.02014      276.49165    
     24200   493.32729     -378.49653    
     24300   502.19689      264.98924    
     24400   501.08977     -565.48324    
     24500   504.30982      77.47509     
     24600   501.36958     -92.062646    
     24700   495.01751      214.076      
     24800   504.79045     -267.75437    
     24900   502.27516      413.76499    
     25000   499.71586     -225.26659    
     25100   503.34504     -530.2392     
     25200   495.91913      667.23105    
     25300   503.0953      -338.29481    
     25400   497.21757      62.778921    
     25500   492.81114      127.87512    
     25600   500.08216     -55.976158    
     25700   498.2646       191.33433    
     25800   502.28565     -412.02766    
     25900   502.24765      155.4385     
     26000   496.24962     -209.12452    
     26100   505.9685      -177.66563    
     26200   501.05562      187.74372    
     26300   497.20459      153.74259    
     26400   500.05922     -24.564483    
     26500   501.56462     -254.92142    
     26600   499.07186      149.72975    
     26700   497.39077     -117.24564    
     26800   502.25187     -53.125795    
     26900   499.83639     -202.28587    
     27000   498.34675      77.796533    
     27100   502.0598       10.743879    
     27200   501.63361      19.590904    
     27300   499.19369     -70.174391    
     27400   493.04349     -104.58116    
     27500   502.70743      351.69005    
     27600   499.06167     -243.81248    
     27700   497.26418      99.075461    
     27800   500.81818     -272.73326    
     27900   497.80287     -64.443194    
     28000   494.05889     -391.36971    
     28100   500.05035      14.249767    
     28200   500.38358     -112.11975    
     28300   503.6495      -335.69249    
     28400   500.99679      345.87095    
     28500   500.44204     -383.80086    
     28600   500.82633     -174.39766    
     28700   495.22713      23.472888    
     28800   501.35197      179.13816    
     28900   503.32806     -405.25013    
     29000   500.88991      119.78725    
     29100   501.87532     -155.19969    
     29200   501.53727     -126.54929    
     29300   499.82436      105.24225    
     29400   498.84641     -467.32046    
     29500   501.94285      337.62131    
     29600   500.25801     -13.598154    
     29700   499.36204      223.31835    
     29800   500.24371     -294.77629    
     29900   497.60005      348.87424    
     30000   505.98367     -151.22834    
     30100   498.10454     -43.575292    
     30200   505.11357      68.227424    
     30300   494.29655     -293.26619    
     30400   501.0118       221.70818    
     30500   498.13273     -537.53249    
     30600   498.22563      645.74107    
     30700   501.47581     -502.65917    
     30800   499.31284      298.63913    
     30900   501.04055     -307.70931    
     31000   497.33425     -237.22989    
     31100   497.31554      312.80314    
     31200   495.99423     -308.59531    
     31300   501.65835      211.48366    
     31400   498.58189     -154.7878     
     31500   499.75486      0.21534053   
     31600   506.74682      117.33454    
     31700   498.10956     -490.40817    
     31800   496.70014      197.47065    
     31900   507.43005     -63.380838    
     32000   496.79581     -143.08627    
     32100   503.8685       358.03125    
     32200   498.88674     -221.11358    
     32300   498.60974      74.50188     
     32400   500.05356     -256.80174    
     32500   498.36936      87.005462    
     32600   500.54467     -138.31654    
     32700   502.68674     -141.3117     
     32800   503.4211       29.822109    
     32900   501.75346     -69.71024     
     33000   500.33281      157.12872    
     33100   493.55701     -162.41441    
     33200   504.46308      396.70846    
     33300   497.06111     -180.90447    
     33400   497.12758      73.096974    
     33500   500.10865     -300.67207    
     33600   498.1756       124.68309    
     33700   499.2785      -270.60505    
     33800   497.58042      178.18219    
     33900   498.78749      11.522844    
     34000   498.3864       18.781378    
     34100   496.93204     -114.29345    
     34200   501.69322      196.485      
     34300   496.19797     -60.42085     
     34400   497.92428     -478.41427    
     34500   499.10374      219.11682    
     34600   500.52229     -302.59287    
     34700   503.54129     -93.99626     
     34800   503.58765      303.85256    
     34900   497.87547     -629.39411    
     35000   500.5238       514.82202    
     35100   502.38783     -271.82999    
     35200   498.46895     -101.30559    
     35300   498.49584      235.12908    
     35400   494.2063      -183.86231    
     35500   505.206       -130.5687     
     35600   499.95584      20.251417    
     35700   504.87349      321.41594    
     35800   500.90863     -351.5809     
     35900   500.43583      263.06599    
     36000   498.6455      -686.72125    
     36100   502.48507      173.83897    
     36200   500.22656      433.20985    
     36300   500.40483     -353.31501    
     36400   504.60965      73.388856    
     36500   497.55744      419.31893    
     36600   501.50994     -494.43661    
     36700   498.22204      90.746491    
     36800   501.70925      67.03931     
     36900   497.69427      66.128976    
     37000   501.14117     -246.32041    
     37100   498.43723      156.6484     
     37200   498.74071      27.844754    
     37300   501.94134      133.03407    
     37400   497.136       -358.90783    
     37500   500.94504      130.34493    
     37600   498.63403     -52.523193    
     37700   494.44945      167.03595    
     37800   496.49363      63.077826    
     37900   498.47818     -372.51246    
     38000   502.4414       106.09471    
     38100   501.1218       54.375547    
     38200   499.11385      335.71806    
     38300   498.22318     -480.74456    
     38400   503.38824      591.08537    
     38500   501.55641     -508.13695    
     38600   502.62781      152.80131    
     38700   500.61913     -111.29191    
     38800   495.64812     -33.670248    
     38900   497.26712      130.81587    
     39000   498.63943     -168.1198     
     39100   498.96303      433.44649    
     39200   499.31407     -217.8707     
     39300   501.2929      -44.606032    
     39400   503.14851     -66.047604    
     39500   502.81644      130.49935    
     39600   499.20595     -32.524211    
     39700   500.28733     -401.01238    
     39800   503.01229      526.51542    
     39900   499.35797     -296.76264    
     40000   491.23841      167.12189    
     40100   504.77979     -404.0705     
     40200   498.3581       440.66525    
     40300   497.28609     -294.32371    
     40400   500.45457      13.121747    
     40500   503.16063      24.701247    
     40600   501.03161      44.086693    
     40700   503.32624      92.057536    
     40800   496.26307     -412.6669     
     40900   497.3175       235.13823    
     41000   501.12109     -117.00538    
     41100   501.72446      93.583408    
     41200   497.20959     -252.42921    
     41300   506.30194      102.34055    
     41400   507.59947     -97.871517    
     41500   500.02026     -177.74073    
     41600   501.94554      145.23899    
     41700   499.00894     -79.062025    
     41800   497.23451     -48.8453      
     41900   501.64699     -121.65131    
     42000   497.69588      97.117062    
     42100   503.17164     -167.51886    
     42200   498.21845     -73.252852    
     42300   501.81923     -167.06895    
     42400   501.52812     -25.876932    
     42500   499.27946     -203.76216    
     42600   505.11805     -108.81696    
     42700   506.21671     -23.275143    
     42800   494.85505      282.89132    
     42900   503.41922     -128.83015    
     43000   503.31822     -118.63763    
     43100   500.71539     -22.648276    
     43200   500.82164      243.58569    
     43300   501.34254      82.43986     
     43400   496.23697      96.779834    
     43500   497.00505     -226.02262    
     43600   497.82579      173.94152    
     43700   500.38587      89.102813    
     43800   501.34062     -249.78194    
     43900   497.74608     -104.17495    
     44000   496.27002      94.74608     
     44100   493.81512     -16.304568    
     44200   499.4956      -26.315435    
     44300   500.1487       207.46486    
     44400   503.56688     -118.88965    
     44500   501.61229      26.096241    
     44600   500.46522     -240.03106    
     44700   501.27044      238.631      
     44800   499.02416     -236.65369    
     44900   500.65519     -106.34646    
     45000   497.94713     -23.830149    
     45100   495.45125     -201.99976    
     45200   503.88965      236.37952    
     45300   497.45733     -13.799186    
     45400   497.53471      202.63974    
     45500   500.15078     -192.10881    
     45600   503.92206      3.5610242    
     45700   498.40353     -272.2612     
     45800   492.31963     -460.33784    
     45900   499.13084      120.08968    
     46000   498.82165     -305.59293    
     46100   498.07646      280.22412    
     46200   498.12203     -132.62136    
     46300   500.57222     -42.267145    
     46400   500.13388     -225.60504    
     46500   502.14306      287.068      
     46600   496.25982     -671.62637    
     46700   502.93836      229.89263    
     46800   500.7407       268.25128    
     46900   498.83141     -1.5057434    
     47000   500.29652     -261.16483    
     47100   506.06458      286.02016    
     47200   499.76646     -279.90052    
     47300   501.70197      356.92548    
     47400   497.9855       15.782229    
     47500   501.75429     -284.50832    
     47600   500.09467      352.89924    
     47700   497.82857     -430.10095    
     47800   503.97426      479.0111     
     47900   497.64409     -421.71884    
     48000   495.74762      368.48087    
     48100   498.72116     -341.97732    
     48200   498.47957     -9.6111415    
     48300   500.67817     -156.03259    
     48400   499.79448     -5.9145323    
     48500   499.05823     -23.181922    
     48600   499.20821      237.42709    
     48700   498.58701     -54.254933    
     48800   501.7655       134.55349    
     48900   496.38501      25.082739    
     49000   499.72288     -262.00976    
     49100   498.30225      198.20501    
     49200   498.67424     -514.37495    
     49300   503.03614      159.96646    
     49400   496.49988      9.133347     
     49500   500.46436      136.1289     
     49600   497.96614     -11.624756    
     49700   499.14597     -1.3756305    
     49800   499.74032     -9.1725618    
     49900   499.61181     -216.9911     
     50000   497.95872     -34.404745    
Loop time of 201.615 on 6 procs for 50000 steps with 10000 atoms

Performance: 10.713 ns/day, 2.240 hours/ns, 247.998 timesteps/s
94.9% CPU use with 6 MPI tasks x 1 OpenMP threads

MPI task timing breakdown:
Section |  min time  |  avg time  |  max time  |%varavg| %total
---------------------------------------------------------------
Pair    | 51.586     | 69.241     | 84.2       | 156.0 | 34.34
Bond    | 11.412     | 13.66      | 16.137     |  50.6 |  6.78
Neigh   | 19.71      | 19.727     | 19.743     |   0.2 |  9.78
Comm    | 70.573     | 88.148     | 108.21     | 159.1 | 43.72
Output  | 0.018929   | 0.022778   | 0.032821   |   3.2 |  0.01
Modify  | 9.926      | 10.096     | 10.269     |   4.1 |  5.01
Other   |            | 0.7201     |            |       |  0.36

Nlocal:        1666.67 ave        1932 max        1465 min
Histogram: 2 0 1 0 1 0 0 0 1 1
Nghost:           5230 ave        5606 max        4992 min
Histogram: 2 1 0 1 0 0 0 1 0 1
Neighs:         131861 ave      161683 max      106877 min
Histogram: 2 0 0 1 0 1 0 0 1 1

Total # of neighbors = 791167
Ave neighs/atom = 79.1167
Ave special neighs/atom = 5.988
Neighbor list builds = 2500
Dangerous builds = 0
unfix           1
unfix           2
write_restart   restart.${simname}.dreiding2
write_restart   restart.PE_nc10_cl1000.dreiding2
System init for write_restart ...
Generated 0 of 0 mixed pair_coeff terms from geometric mixing rule

# Equilibration Stage 3 (NPT dynamics from 500 K --> 100 K)
fix             1 all npt temp 500 100 50 iso 0 0 1000 drag 2
fix             2 all momentum 1 linear 1 1 1
thermo_style    custom step temp press
thermo          10
timestep        0.5
reset_timestep  0
run             50000
Generated 0 of 0 mixed pair_coeff terms from geometric mixing rule
WARNING: Inconsistent image flags (src/domain.cpp:819)
Per MPI rank memory allocation (min/avg/max) = 7.724 | 8.128 | 9.072 Mbytes
   Step          Temp          Press     
         0   497.95872     -34.404745    
        10   496.25606      305.6583     
        20   495.46597      307.14557    
        30   499.52405      17.871657    
        40   499.99013     -333.403      
        50   498.97487     -417.71074    
        60   503.05406     -130.41887    
        70   499.81324      207.79797    
        80   495.04017      378.51625    
        90   499.31374      359.79831    
       100   498.03287      138.52692    
       110   497.519       -18.665541    
       120   502.75131      61.516719    
       130   502.9775       238.47256    
       140   500.86155      383.13721    
       150   498.9569       413.16771    
       160   500.13703      340.36064    
       170   501.59652      200.1868     
       180   499.62304      57.221232    
       190   503.03228      54.674792    
       200   505.59075      134.57725    
       210   500.46301      156.66902    
       220   501.45917      137.10104    
       230   503.38475      23.002327    
       240   495.90869     -170.44342    
       250   498.67645     -190.42494    
       260   504.20047     -114.19587    
       270   498.45098     -139.32731    
       280   502.37355     -155.47733    
       290   506.44979     -234.88494    
       300   501.79986     -398.54913    
       310   503.29472     -458.00243    
       320   502.87199     -434.02114    
       330   500.58257     -349.50417    
       340   500.6775      -236.88387    
       350   497.68656     -182.41544    
       360   498.65085     -128.70764    
       370   498.74479     -101.28951    
       380   493.85189     -127.59385    
       390   496.27746     -103.82059    
       400   497.37249     -81.886264    
       410   493.38221     -68.186165    
       420   498.75648      35.998635    
       430   500.11374      52.013229    
       440   496.99913     -72.74099     
       450   503.57589     -176.32015    
       460   501.78419     -279.02485    
       470   496.26568     -252.95026    
       480   499.35261     -47.219542    
       490   495.44715      66.36804     
       500   491.96787      53.263812    
       510   496.26329      7.2368941    
       520   498.11951     -43.930276    
       530   501.08136      12.884037    
       540   502.44058      138.09638    
       550   500.74267      222.22821    
       560   499.78672      218.14153    
       570   496.77927      108.01467    
       580   497.02706     -0.19258319   
       590   499.61346     -65.174598    
       600   499.29816     -140.39156    
       610   499.87227     -207.42993    
       620   498.61942     -253.02922    
       630   496.64717     -241.48673    
       640   497.98729     -177.89354    
       650   496.98317     -182.02375    
       660   498.74232     -250.43005    
       670   500.42019     -344.09386    
       680   497.50478     -382.37687    
       690   497.24937     -264.07762    
       700   495.6626      -109.05772    
       710   492.49682     -44.602186    
       720   494.8126      -51.511679    
       730   496.1999      -120.17504    
       740   494.63846     -170.83923    
       750   496.18712     -99.658467    
       760   496.22846      25.00721     
       770   494.5327       129.02154    
       780   496.45322      200.29397    
       790   498.79976      182.72618    
       800   498.06316      77.610324    
       810   496.93461      2.3338045    
       820   497.08007      41.506218    
       830   494.62869      139.62295    
       840   492.83748      206.71235    
       850   496.13732      155.41796    
       860   496.63881     -68.182712    
       870   495.40493     -296.40196    
       880   497.13832     -338.09867    
       890   495.11985     -239.00592    
       900   490.13361     -130.69916    
       910   493.20152     -93.864072    
       920   495.69213     -235.33205    
       930   493.65862     -443.17773    
       940   498.46528     -446.51166    
       950   499.49838     -289.77912    
       960   493.72394     -122.15252    
       970   494.34221     -8.7210504    
       980   494.77066     -70.378961    
       990   491.46452     -233.18887    
      1000   495.4396      -236.85301    
      1010   498.38573     -92.377388    
      1020   495.86277      60.530026    
      1030   496.95654      156.94205    
      1040   496.99519      113.71588    
      1050   493.45536     -3.9763764    
      1060   492.98337     -11.847643    
      1070   493.71074      101.91772    
      1080   491.57026      197.98467    
      1090   491.20338      197.4133     
      1100   494.01137      106.19889    
      1110   491.90699     -19.170258    
      1120   490.25154     -11.19586     
      1130   494.78115      153.84456    
      1140   493.20002      237.32952    
      1150   491.39735      196.3505     
      1160   496.5982       122.57531    
      1170   494.09387     -9.6133344    
      1180   491.08639     -67.440997    
      1190   495.60322      26.568702    
      1200   492.12271      81.54865     
      1210   489.55085      69.807349    
      1220   492.81925     -10.694352    
      1230   490.36301     -179.06753    
      1240   489.52965     -235.18612    
      1250   491.26179     -114.84228    
      1260   492.28908      32.73836     
      1270   493.01918      35.34402     
      1280   493.22012     -117.16195    
      1290   496.80983     -228.77256    
      1300   497.31999     -207.94429    
      1310   496.23695     -51.993867    
      1320   498.56         129.28856    
      1330   497.53642      125.02594    
      1340   495.30293     -45.922641    
      1350   495.90435     -180.89379    
      1360   495.02884     -138.44038    
      1370   494.55845      83.247211    
      1380   494.92706      262.39402    
      1390   493.97219      179.1914     
      1400   496.3373      -80.988295    
      1410   495.64607     -308.16448    
      1420   492.66606     -268.4551     
      1430   493.5545       39.732651    
      1440   493.32184      272.61483    
      1450   491.86532      183.92535    
      1460   491.91768     -143.97302    
      1470   495.87035     -405.65353    
      1480   495.90268     -413.94112    
      1490   490.19879     -182.9397     
      1500   492.37557      140.02964    
      1510   490.6243       174.95553    
      1520   482.20164     -144.79978    
      1530   486.1956      -441.89023    
      1540   489.08143     -557.37821    
      1550   485.22529     -437.0665     
      1560   490.4638      -78.079361    
      1570   494.29089      183.70005    
      1580   491.26445      139.15901    
      1590   492.12002     -71.388891    
      1600   492.41082     -277.30065    
      1610   489.00452     -313.31558    
      1620   487.0386      -99.312318    
      1630   487.10485      224.01878    
      1640   488.29079      414.58368    
      1650   489.09679      324.61707    
      1660   490.61671      56.244457    
      1670   492.74151     -148.48969    
      1680   493.70104     -127.21394    
      1690   493.66129      80.865225    
      1700   493.80104      274.47968    
      1710   494.02196      276.82991    
      1720   491.03544      74.82663     
      1730   487.17709     -151.56754    
      1740   487.84666     -211.54435    
      1750   485.5813      -145.11716    
      1760   483.67217     -18.307833    
      1770   488.99114      109.49639    
      1780   489.39132      95.423331    
      1790   487.96802      18.595068    
      1800   491.1824       5.2754721    
      1810   489.11136     -21.115678    
      1820   487.43988     -42.651561    
      1830   489.19794     -14.955175    
      1840   489.748        71.880393    
      1850   492.06927      233.65656    
      1860   492.85699      334.87265    
      1870   492.02554      242.63734    
      1880   490.92772     -20.701769    
      1890   488.34033     -265.40621    
      1900   488.71279     -253.28333    
      1910   489.09668     -21.65748     
      1920   488.88309      187.76321    
      1930   490.40361      147.41101    
      1940   489.43525     -187.41161    
      1950   489.9344      -522.67541    
      1960   491.70648     -557.10859    
      1970   488.65368     -290.99127    
      1980   487.61743      68.163373    
      1990   486.75318      181.9188     
      2000   483.47473     -65.071565    
      2010   485.04676     -420.96661    
      2020   486.02544     -624.58823    
      2030   486.7884      -504.83812    
      2040   489.13394     -136.87472    
      2050   489.75166      184.57466    
      2060   488.50996      211.36838    
      2070   486.26852     -77.965593    
      2080   486.73423     -410.09012    
      2090   485.94089     -484.24318    
      2100   481.79583     -185.76396    
      2110   483.55125      342.46626    
      2120   484.08174      625.16408    
      2130   479.88533      394.89103    
      2140   483.64149     -69.181497    
      2150   486.21185     -394.4774     
      2160   483.28221     -282.84939    
      2170   487.71187      281.96884    
      2180   489.55296      757.52093    
      2190   485.84022      692.96937    
      2200   486.40588      173.86551    
      2210   486.8055      -396.75549    
      2220   484.95379     -545.78569    
      2230   484.55558     -133.96217    
      2240   486.69761      464.36564    
      2250   486.45596      663.52788    
      2260   484.99258      260.62738    
      2270   485.87057     -390.21711    
      2280   484.71515     -764.62694    
      2290   482.82325     -564.3762     
      2300   483.70678      15.987078    
      2310   483.57896      422.29843    
      2320   483.20289      298.59992    
      2330   484.24617     -240.10848    
      2340   484.62822     -740.23126    
      2350   485.43959     -749.36526    
      2360   485.78788     -242.86941    
      2370   484.47754      343.20538    
      2380   484.73322      521.88795    
      2390   483.46543      147.37262    
      2400   480.88628     -391.23152    
      2410   483.66739     -526.24057    
      2420   486.28181     -153.1592     
      2430   485.81729      382.54942    
      2440   488.80345      670.01155    
      2450   488.38868      452.71675    
      2460   483.89718     -63.675486    
      2470   484.97949     -370.40999    
      2480   484.33103     -254.91565    
      2490   481.84097      160.6683     
      2500   483.3629       537.16803    
      2510   482.98404      510.9716     
      2520   481.55107      118.69098    
      2530   481.75912     -268.49427    
      2540   482.60913     -330.11787    
      2550   483.93444     -47.318734    
      2560   485.26226      303.02898    
      2570   487.47322      406.31524    
      2580   486.29413      154.96653    
      2590   484.97576     -191.55282    
      2600   485.69362     -335.03372    
      2610   483.03963     -244.10256    
      2620   481.83886     -32.283224    
      2630   484.47441      100.22341    
      2640   482.52775      5.0188561    
      2650   479.61832     -186.40571    
      2660   481.73635     -291.14637    
      2670   479.02288     -319.29548    
      2680   476.46544     -241.69212    
      2690   480.71814     -99.05381     
      2700   480.51646     -82.767913    
      2710   478.84159     -182.07418    
      2720   482.35785     -269.94343    
      2730   481.6548      -327.27916    
      2740   477.40409     -312.41477    
      2750   478.94112     -206.71825    
      2760   478.27766     -148.52645    
      2770   474.82121     -157.86015    
      2780   479.36977     -137.01766    
      2790   480.4248      -174.07682    
      2800   476.74387     -260.53677    
      2810   481.96625     -257.05495    
      2820   480.91907     -255.09504    
      2830   475.76502     -222.84706    
      2840   480.39953     -85.535473    
      2850   478.96651     -32.799445    
      2860   476.12836     -55.617548    
      2870   479.45328     -82.119697    
      2880   478.85326     -144.78085    
      2890   477.30714     -141.26666    
      2900   479.14021      0.40621471   
      2910   479.15499      173.02694    
      2920   476.48414      232.68413    
      2930   475.50512      122.62514    
      2940   476.39501     -88.393072    
      2950   475.55547     -244.60901    
      2960   475.31311     -206.05183    
      2970   479.07385     -10.28162     
      2980   479.59451      101.80417    
      2990   478.84292      35.406836    
      3000   481.51934     -103.5759     
      3010   479.57482     -226.88787    
      3020   478.73143     -205.80678    
      3030   481.0334      -66.317498    
      3040   479.12111      21.28583     
      3050   479.55369      44.055142    
      3060   479.88753      20.370254    
      3070   478.49809      11.388992    
      3080   480.61386      75.678563    
      3090   481.0219       115.96789    
      3100   479.94917      90.814279    
      3110   481.64131      69.297279    
      3120   479.88815      65.0836      
      3130   476.78446      100.35357    
      3140   477.61332      152.82776    
      3150   475.11882      103.96572    
      3160   474.57341      16.441715    
      3170   477.43555     -17.902365    
      3180   477.39873      5.4867053    
      3190   477.45581      92.361348    
      3200   477.30522      155.46602    
      3210   476.81127      114.95585    
      3220   475.66294     -10.019481    
      3230   474.0943      -105.26077    
      3240   476.2864      -40.871817    
      3250   477.44241      124.92849    
      3260   475.8705       244.81844    
      3270   476.70832      240.20915    
      3280   474.33541      80.013666    
      3290   470.83932     -84.843456    
      3300   472.43032     -81.690092    
      3310   469.56265      16.458241    
      3320   469.6529       163.5641     
      3330   474.0821       237.39217    
      3340   472.718        110.40748    
      3350   476.55316     -37.673346    
      3360   480.45614     -99.359101    
      3370   478.8303      -43.05623     
      3380   482.01502      144.85791    
      3390   481.16323      229.00383    
      3400   475.6205       102.74477    
      3410   474.25408     -101.2127     
      3420   474.38981     -234.29263    
      3430   473.40947     -197.79635    
      3440   474.83564     -12.848993    
      3450   478.58913      153.99275    
      3460   477.03265      128.29831    
      3470   474.53139     -4.6958957    
      3480   476.28958     -54.454783    
      3490   472.91047     -17.476669    
      3500   472.25699      109.24432    
      3510   477.67609      230.62515    
      3520   475.98665      174.65988    
      3530   476.11658      57.604268    
      3540   478.52868     -20.435779    
      3550   473.77077     -68.941858    
      3560   472.62652     -3.7183037    
      3570   472.16893      72.870193    
      3580   470.00118      49.326454    
      3590   471.91372     -42.30514     
      3600   472.20014     -173.02156    
      3610   472.00142     -231.43172    
      3620   474.73825     -153.05651    
      3630   475.13687     -48.771       
      3640   475.98486      1.9481565    
      3650   478.26746     -33.115564    
      3660   477.79209     -135.12008    
      3670   477.90502     -183.07918    
      3680   476.51407     -140.18136    
      3690   475.15771     -24.009152    
      3700   475.43541      81.793697    
      3710   474.40445      66.639229    
      3720   475.92566     -32.435624    
      3730   477.61292     -136.4211     
      3740   477.77924     -144.80025    
      3750   477.74812     -13.796107    
      3760   475.76852      152.31487    
      3770   474.13043      232.93453    
      3780   472.53476      162.21956    
      3790   470.44187      4.2178285    
      3800   472.17351     -65.500439    
      3810   473.92402      11.599571    
      3820   472.92707      167.31465    
      3830   474.88932      287.947      
      3840   474.28839      191.35192    
      3850   470.46897     -89.274224    
      3860   470.52419     -299.85315    
      3870   471.52118     -295.79737    
      3880   472.49309     -94.426746    
      3890   473.16707      119.22506    
      3900   473.5697       134.79657    
      3910   474.83669     -70.741418    
      3920   471.63118     -330.07239    
      3930   469.66427     -334.6084     
      3940   471.34864     -12.157248    
      3950   469.90402      349.50871    
      3960   471.12925      471.58919    
      3970   476.23216      251.89162    
      3980   475.09926     -172.29366    
      3990   474.21406     -393.60468    
      4000   475.35762     -213.57003    
      4010   471.26116      168.20059    
      4020   469.75203      463.22914    
      4030   469.55098      401.87849    
      4040   468.71387      19.00003     
      4050   472.06459     -331.97445    
      4060   472.50164     -394.61225    
      4070   472.69147     -125.89613    
      4080   474.96323      202.73447    
      4090   471.25358      223.75309    
      4100   470.46876     -46.182792    
      4110   473.09818     -397.40659    
      4120   469.11412     -606.66488    
      4130   468.57212     -447.36942    
      4140   470.816       -77.047881    
      4150   466.97556      129.02413    
      4160   467.67569      64.618054    
      4170   470.63383     -205.70317    
      4180   467.94793     -440.64189    
      4190   468.91882     -327.7687     
      4200   469.34269      24.695644    
      4210   465.72231      288.93312    
      4220   467.86859      300.50976    
      4230   467.94289      14.387858    
      4240   466.47711     -309.6707     
      4250   470.73059     -361.88313    
      4260   468.18657     -201.47569    
      4270   467.7009       62.642421    
      4280   471.97679      174.7139     
      4290   468.3809      -97.947182    
      4300   469.41787     -482.50192    
      4310   473.59767     -675.38159    
      4320   470.18183     -589.30104    
      4330   471.67426     -246.90657    
      4340   473.76583     -10.134031    
      4350   470.6285      -135.96313    
      4360   471.50763     -447.32001    
      4370   470.67396     -710.07079    
      4380   470.41165     -702.72534    
      4390   470.18691     -459.91837    
      4400   467.08391     -226.38959    
      4410   469.88728     -139.77263    
      4420   468.53662     -300.64113    
      4430   465.86672     -511.76327    
      4440   470.0329      -498.88086    
      4450   468.08348     -306.93483    
      4460   466.55348     -13.108407    
      4470   471.14779      215.24872    
      4480   467.63176      142.21268    
      4490   464.36345     -81.25573     
      4500   468.5671      -195.40805    
      4510   465.25376     -187.08207    
      4520   462.49747     -11.919386    
      4530   467.2788       245.50428    
      4540   467.25158      323.75552    
      4550   466.16462      188.90165    
      4560   469.2081      -26.201643    
      4570   470.56995     -197.071      
      4580   468.57991     -206.59364    
      4590   467.34101     -24.353841    
      4600   467.16607      173.70213    
      4610   465.47099      148.13896    
      4620   465.34802     -95.747052    
      4630   466.43978     -358.8915     
      4640   467.40477     -434.77136    
      4650   466.99555     -292.07823    
      4660   465.3843      -86.98764     
      4670   466.28269      8.6066772    
      4680   465.95031     -110.84398    
      4690   463.96829     -349.44296    
      4700   466.54443     -470.39307    
      4710   465.36737     -415.11764    
      4720   461.72052     -202.79233    
      4730   463.96192      58.846248    
      4740   463.42364      108.64148    
      4750   461.8404      -61.284685    
      4760   466.53645     -222.00857    
      4770   467.77309     -270.80449    
      4780   465.68523     -154.50336    
      4790   468.3167       100.9203     
      4800   467.73785      262.02661    
      4810   463.66862      220.61832    
      4820   466.73269      109.01039    
      4830   467.67319     -11.369207    
      4840   464.1523      -24.137816    
      4850   467.66851      203.86378    
      4860   468.22705      462.26411    
      4870   463.45957      516.83787    
      4880   466.7166       371.04141    
      4890   468.00478      44.497405    
      4900   462.93149     -252.36308    
      4910   466.53504     -200.29537    
      4920   467.26923      42.066035    
      4930   460.65029      158.87476    
      4940   464.18142      81.030819    
      4950   463.34937     -264.15638    
      4960   458.41674     -612.06212    
      4970   464.57818     -601.92044    
      4980   462.78016     -396.72968    
      4990   461.01261     -140.22301    
      5000   466.57879      1.2410481    
      5010   462.50088     -198.08218    
      5020   461.33093     -496.89825    
      5030   465.13442     -624.98866    
      5040   462.04862     -534.2949     
      5050   461.6793      -230.61768    
      5060   463.88276      45.301616    
      5070   462.08893      82.295736    
      5080   461.44141     -17.785884    
      5090   460.96547     -97.317234    
      5100   460.915       -62.695418    
      5110   461.98586      57.922832    
      5120   461.39068      166.51225    
      5130   462.38189      248.44041    
      5140   462.67108      277.57681    
      5150   461.67154      259.34764    
      5160   461.58511      227.2228     
      5170   462.82523      195.49856    
      5180   463.49504      161.9885     
      5190   460.94405      122.47762    
      5200   462.61153      135.81087    
      5210   462.41895      131.03307    
      5220   457.87716      76.662639    
      5230   461.72136      75.820537    
      5240   461.95561      16.13703     
      5250   457.9247      -108.28287    
      5260   462.11708     -161.21589    
      5270   461.53252     -208.80129    
      5280   458.77719     -217.59514    
      5290   462.97449     -149.34168    
      5300   462.72894     -156.63866    
      5310   461.58143     -230.41755    
      5320   463.7753      -295.90876    
      5330   463.42119     -339.39564    
      5340   462.15279     -303.43053    
      5350   461.67699     -170.22249    
      5360   460.15497     -10.626412    
      5370   460.23718      81.908121    
      5380   460.77378      32.664693    
      5390   460.21045     -82.501435    
      5400   462.33201     -90.158363    
      5410   463.61286      30.401529    
      5420   460.61831      173.70385    
      5430   460.88112      232.65796    
      5440   461.48399      75.418676    
      5450   457.53771     -234.10285    
      5460   458.4869      -386.90379    
      5470   462.52457     -256.23103    
      5480   459.61764     -1.1330279    
      5490   457.44341      192.3034     
      5500   461.22871      175.67811    
      5510   457.8663      -91.251629    
      5520   454.48348     -294.75705    
      5530   461.53141     -177.82855    
      5540   462.25444      54.583482    
      5550   458.20674      218.98482    
      5560   462.8672       277.99754    
      5570   461.32632      99.317545    
      5580   455.05357     -173.98689    
      5590   456.87332     -270.51997    
      5600   456.47729     -214.74621    
      5610   455.92633     -77.750564    
      5620   458.59486      12.782556    
      5630   458.83727     -77.630109    
      5640   459.03351     -266.16035    
      5650   457.41023     -398.05371    
      5660   457.03664     -323.28334    
      5670   458.80555     -69.89884     
      5680   457.29851      149.99452    
      5690   459.00418      225.94798    
      5700   459.31083      89.100235    
      5710   456.51868     -138.40736    
      5720   456.64449     -209.87845    
      5730   454.85644     -82.53715     
      5740   453.60776      146.62031    
      5750   455.26482      279.32364    
      5760   453.75502      144.68672    
      5770   455.82264     -134.84274    
      5780   457.45273     -387.05704    
      5790   455.17793     -441.77078    
      5800   459.07147     -222.24225    
      5810   459.1099      -30.024177    
      5820   457.26499     -62.152934    
      5830   460.89388     -288.24923    
      5840   456.40785     -630.84297    
      5850   453.35465     -748.02111    
      5860   456.45909     -519.99825    
      5870   454.21678     -217.15912    
      5880   454.15851     -36.338805    
      5890   458.65482     -99.095184    
      5900   458.06198     -383.35532    
      5910   456.34534     -564.17471    
      5920   458.82623     -388.73907    
      5930   457.85184      0.7754989    
      5940   456.27694      344.41145    
      5950   458.7691       442.81113    
      5960   455.86992      224.61178    
      5970   453.05813     -28.135905    
      5980   454.60821     -42.198619    
      5990   453.26562      164.15507    
      6000   454.35582      473.29864    
      6010   456.58498      632.47341    
      6020   454.45759      457.82988    
      6030   455.76321      102.70617    
      6040   455.9345      -212.84994    
      6050   453.12347     -273.53745    
      6060   456.55265     -4.7157489    
      6070   457.38169      257.56224    
      6080   456.59161      238.52919    
      6090   458.46536     -57.51435     
      6100   455.797       -448.33717    
      6110   455.83118     -576.08228    
      6120   457.46147     -369.3769     
      6130   456.62166     -78.937039    
      6140   458.8986       42.679401    
      6150   457.62264     -158.43578    
      6160   455.52249     -486.06412    
      6170   457.86148     -623.98014    
      6180   455.09802     -531.63996    
      6190   454.12235     -269.45587    
      6200   458.5441      -29.862063    
      6210   457.26873     -46.837997    
      6220   456.89712     -219.57669    
      6230   459.48892     -352.27638    
      6240   458.39681     -339.15867    
      6250   457.70668     -109.46505    
      6260   458.605        215.03254    
      6270   460.04131      386.75953    
      6280   458.39965      243.88321    
      6290   456.0546      -61.010973    
      6300   457.36932     -219.3543     
      6310   453.97879     -151.78429    
      6320   452.55181      90.691282    
      6330   456.89415      274.4104     
      6340   455.31174      144.55575    
      6350   454.97427     -139.10051    
      6360   456.39599     -349.52748    
      6370   451.92543     -405.92919    
      6380   450.49499     -251.59372    
      6390   450.10359     -55.579162    
      6400   447.89699     -2.6500062    
      6410   450.17122     -82.921498    
      6420   450.18008     -255.68737    
      6430   450.08427     -343.95267    
      6440   453.03818     -239.6802     
      6450   453.0328      -74.558678    
      6460   452.22816      23.200826    
      6470   454.00739      26.47974     
      6480   455.26778     -37.237885    
      6490   453.70145     -104.60636    
      6500   452.81963     -107.33334    
      6510   454.56361     -53.15072     
      6520   453.44554     -15.94959     
      6530   450.50654      17.314662    
      6540   453.64023      101.97576    
      6550   452.71526      118.5251     
      6560   447.58012      59.773558    
      6570   449.31886      41.743423    
      6580   448.1007      -0.04041027   
      6590   445.6723      -31.999583    
      6600   450.51426      28.347806    
      6610   452.44808      61.938704    
      6620   452.77786      42.903466    
      6630   455.19988      13.558526    
      6640   453.19067     -51.804178    
      6650   449.5473      -106.24132    
      6660   449.00774     -97.600908    
      6670   448.46658     -66.21771     
      6680   449.58628     -24.991693    
      6690   452.26828      2.9271944    
      6700   451.6335      -39.311457    
      6710   451.63853     -109.19104    
      6720   452.52113     -162.19852    
      6730   448.90725     -188.30045    
      6740   448.09409     -92.622808    
      6750   450.46343      94.468363    
      6760   448.1062       208.33237    
      6770   447.29156      214.93699    
      6780   449.87957      126.91581    
      6790   448.38929     -15.45922     
      6800   448.07364     -18.922177    
      6810   451.58773      184.99228    
      6820   453.3586       403.20764    
      6830   453.57412      423.78108    
      6840   453.22651      208.82719    
      6850   453.93338     -45.506357    
      6860   452.33499     -131.18375    
      6870   449.39268      22.473078    
      6880   452.04211      282.11323    
      6890   452.57912      319.52644    
      6900   450.27442      78.022379    
      6910   452.48717     -180.14572    
      6920   452.13623     -276.50673    
      6930   448.22733     -136.43754    
      6940   447.29508      160.97587    
      6950   446.32445      327.61395    
      6960   444.64028      193.52094    
      6970   444.3922      -118.64292    
      6980   446.611       -318.59529    
      6990   448.99238     -230.08244    
      7000   448.03447      52.461754    
      7010   449.52596      301.19272    
      7020   450.41326      261.60293    
      7030   446.91349     -37.423562    
      7040   448.45868     -248.18944    
      7050   448.07105     -234.61002    
      7060   445.77331     -17.936253    
      7070   447.16614      260.85017    
      7080   444.60238      328.91059    
      7090   442.53397      160.67625    
      7100   442.2032      -99.128495    
      7110   442.05561     -248.59402    
      7120   445.05426     -149.53541    
      7130   446.57902      73.682018    
      7140   447.47645      219.12831    
      7150   448.90274      149.77324    
      7160   448.12791     -104.73856    
      7170   446.99132     -311.83107    
      7180   445.00447     -284.25538    
      7190   444.84128     -18.579907    
      7200   445.8316       243.69302    
      7210   444.00187      225.88472    
      7220   445.05835     -40.368209    
      7230   445.01281     -339.92763    
      7240   442.36399     -377.91417    
      7250   444.05144     -49.34534     
      7260   444.2503       303.97111    
      7270   443.53135      347.34411    
      7280   444.85952      42.516272    
      7290   445.30141     -353.72089    
      7300   443.99311     -466.34451    
      7310   444.04553     -171.7008     
      7320   444.46912      232.87456    
      7330   443.22612      354.86407    
      7340   443.24298      108.91952    
      7350   443.73366     -267.66899    
      7360   443.87075     -428.50671    
      7370   445.92042     -231.01851    
      7380   447.34429      116.47044    
      7390   446.84677      317.67343    
      7400   446.21928      252.02762    
      7410   446.4833       11.088944    
      7420   445.79659     -227.59446    
      7430   445.9151      -296.24454    
      7440   448.49775     -169.99815    
      7450   448.07696     -15.219056    
      7460   445.47553      38.495215    
      7470   442.76658     -48.552446    
      7480   441.94969     -207.59571    
      7490   440.56481     -326.6677     
      7500   440.76804     -282.73316    
      7510   446.76273     -66.775422    
      7520   447.37663      89.573851    
      7530   444.30769      76.670098    
      7540   444.96597     -42.081831    
      7550   441.26893     -210.14618    
      7560   438.42282     -236.9615     
      7570   440.98358     -59.851572    
      7580   442.26797      118.90712    
      7590   443.61247      149.77457    
      7600   443.12844      20.149743    
      7610   439.53701     -117.58511    
      7620   439.44789     -54.93125     
      7630   436.90733      130.98983    
      7640   435.40504      273.7122     
      7650   441.34874      257.51045    
      7660   441.361        8.6197993    
      7670   440.20433     -204.59873    
      7680   444.49471     -135.99987    
      7690   442.56074      62.045584    
      7700   440.37915      199.99069    
      7710   443.4138       148.5282     
      7720   443.86317     -98.105278    
      7730   442.61376     -292.50333    
      7740   441.99741     -218.52523    
      7750   441.73449      73.822979    
      7760   439.57821      311.61815    
      7770   436.67661      307.07574    
      7780   439.73067      139.90665    
      7790   441.32874     -56.420363    
      7800   438.90136     -77.459942    
      7810   441.3138       199.95922    
      7820   442.37771      505.71258    
      7830   439.99098      537.11408    
      7840   439.85024      261.09297    
      7850   441.66825     -119.17853    
      7860   441.44231     -296.18717    
      7870   439.92302     -95.282258    
      7880   441.28082      325.48102    
      7890   440.47709      533.77199    
      7900   437.88324      313.25261    
      7910   440.04737     -117.9849     
      7920   440.05513     -431.34173    
      7930   439.23409     -365.95856    
      7940   441.90809      8.7960263    
      7950   440.27955      265.50488    
      7960   440.07991      167.15132    
      7970   440.14649     -238.34084    
      7980   435.88464     -655.37978    
      7990   438.00358     -693.73907    
      8000   438.30918     -405.81376    
      8010   435.75608     -67.368831    
      8020   440.63299      90.884299    
      8030   441.16626     -125.40097    
      8040   439.73882     -487.96947    
      8050   441.54013     -624.9882     
      8060   439.75892     -434.20855    
      8070   439.16513     -27.423209    
      8080   439.72584      259.4467     
      8090   439.61091      191.45185    
      8100   440.62417     -118.54683    
      8110   440.22421     -369.65013    
      8120   439.91141     -289.31115    
      8130   440.01515      73.381565    
      8140   438.39589      383.7896     
      8150   437.29872      389.83576    
      8160   438.11122      103.71408    
      8170   440.87461     -230.67693    
      8180   440.86099     -364.45526    
      8190   439.92981     -193.01221    
      8200   443.44456      130.70605    
      8210   439.38101      211.05343    
      8220   434.62041     -12.031585    
      8230   439.79377     -309.4887     
      8240   434.83747     -580.29867    
      8250   433.04011     -531.97328    
      8260   443.03089     -169.15741    
      8270   438.68041      24.5446      
      8280   437.22977      12.142041    
      8290   444.68954     -110.18246    
      8300   439.52847     -316.43051    
      8310   437.61825     -283.16641    
      8320   439.87606     -11.131071    
      8330   436.44359      210.86021    
      8340   436.1348       264.62374    
      8350   435.6717       131.78162    
      8360   437.41624      0.026848872  
      8370   438.82606     -17.570386    
      8380   436.16758      49.534133    
      8390   438.88786      180.16176    
      8400   438.90653      190.48449    
      8410   435.9121       63.172744    
      8420   437.87428     -45.981217    
      8430   437.95037     -109.27757    
      8440   437.35146     -80.334513    
      8450   436.14107      13.43533     
      8460   435.17933      76.819024    
      8470   435.94373      37.83204     
      8480   432.17164     -118.57072    
      8490   433.3739      -204.30488    
      8500   438.05215     -174.24444    
      8510   432.88784     -160.46892    
      8520   433.45972     -97.924077    
      8530   436.43559     -77.970367    
      8540   429.50751     -196.2169     
      8550   432.01433     -216.95481    
      8560   436.965       -156.2105     
      8570   432.73135     -138.44264    
      8580   433.84181     -91.229889    
      8590   434.83686     -84.205401    
      8600   430.6551      -124.37195    
      8610   431.67058     -57.964065    
      8620   434.12705      80.749332    
      8630   435.05651      179.06419    
      8640   437.37468      203.85005    
      8650   437.93276      161.45861    
      8660   436.78535      125.52935    
      8670   434.35246      147.87614    
      8680   432.97145      222.1915     
      8690   434.42634      278.69399    
      8700   434.77417      224.59129    
      8710   435.20596      93.253223    
      8720   435.5517      -14.250035    
      8730   433.08022     -23.486325    
      8740   430.43769      60.150766    
      8750   429.16697      103.03933    
      8760   429.3835      -13.466374    
      8770   431.81795     -242.16975    
      8780   434.31535     -419.17246    
      8790   434.93146     -416.20253    
      8800   435.8433      -253.76718    
      8810   434.80726     -123.49515    
      8820   431.34996     -156.32277    
      8830   432.78158     -263.11137    
      8840   433.49742     -362.49514    
      8850   430.88243     -370.27126    
      8860   434.36681     -211.48206    
      8870   435.50503     -67.948437    
      8880   430.35611     -67.771404    
      8890   434.1892      -69.493143    
      8900   436.62522     -99.963693    
      8910   431.33557     -165.15746    
      8920   435.25203     -103.57688    
      8930   436.00451     -52.541387    
      8940   430.65196     -73.052417    
      8950   432.27989     -40.355837    
      8960   432.94785     -15.023643    
      8970   432.38591     -28.296221    
      8980   432.67911     -62.260206    
      8990   433.05126     -90.012511    
      9000   435.04123     -77.440606    
      9010   431.7793      -73.840922    
      9020   430.83881     -31.307315    
      9030   433.12322      11.378876    
      9040   427.3703      -53.245187    
      9050   428.32374     -75.858596    
      9060   432.97408     -74.54007     
      9070   427.35333     -142.90887    
      9080   430.2665      -66.73119     
      9090   436.38158      96.466868    
      9100   431.6928       119.3937     
      9110   433.00683      44.743126    
      9120   434.68681     -150.09041    
      9130   427.40111     -374.67751    
      9140   425.89932     -330.84738    
      9150   427.66793     -56.400136    
      9160   425.43641      166.38134    
      9170   427.72333      199.52882    
      9180   431.93157      22.319547    
      9190   431.01766     -221.50892    
      9200   431.10244     -235.28554    
      9210   431.67392      57.254447    
      9220   429.54181      432.38487    
      9230   430.12033      623.89084    
      9240   430.29546      482.01436    
      9250   429.938        174.07658    
      9260   431.61806      20.815793    
      9270   430.08747      141.52394    
      9280   428.9636       435.74542    
      9290   430.27884      628.66856    
      9300   428.83646      510.01102    
      9310   428.70994      192.0005     
      9320   429.28448     -100.79524    
      9330   426.81837     -195.11079    
      9340   426.38333     -29.475431    
      9350   426.0002       189.34552    
      9360   424.75245      221.19397    
      9370   427.60202      32.557045    
      9380   428.69308     -282.93739    
      9390   427.23514     -482.87211    
      9400   428.09114     -383.66407    
      9410   426.40395     -123.11183    
      9420   425.21112      74.293704    
      9430   426.93256      40.959892    
      9440   426.81969     -228.02762    
      9450   429.2007      -464.42284    
      9460   430.81871     -464.22171    
      9470   428.38493     -232.59453    
      9480   429.08946      65.998597    
      9490   426.1989       117.59212    
      9500   421.37021     -100.40301    
      9510   423.70411     -326.56451    
      9520   423.52316     -421.87027    
      9530   423.45        -283.65485    
      9540   428.30163     -2.5169261    
      9550   428.50222      126.02889    
      9560   427.52815      43.622581    
      9570   429.62425     -122.98909    
      9580   429.12658     -246.64607    
      9590   428.05153     -188.6855     
      9600   429.48706      23.63351     
      9610   429.81119      175.39279    
      9620   428.56178      135.76745    
      9630   428.04118     -45.680768    
      9640   428.35114     -229.38111    
      9650   426.38415     -300.86103    
      9660   424.65771     -212.67369    
      9670   426.18741     -66.648248    
      9680   424.85957     -73.996362    
      9690   423.17828     -247.77414    
      9700   424.09355     -443.92547    
      9710   424.02977     -527.87025    
      9720   424.80497     -429.88862    
      9730   423.94856     -272.79461    
      9740   423.94674     -178.03159    
      9750   425.48048     -203.69527    
      9760   422.77841     -328.15921    
      9770   424.56085     -323.40552    
      9780   427.78178     -151.28168    
      9790   424.85039      16.049372    
      9800   427.10137      105.74809    
      9810   428.93752     -0.84556852   
      9820   424.16354     -225.49581    
      9830   425.78019     -231.805      
      9840   427.79933     -26.277163    
      9850   426.43625      166.87738    
      9860   427.87438      202.88577    
      9870   427.14254      14.297557    
      9880   425.04826     -246.39199    
      9890   422.53714     -373.15695    
      9900   418.9212      -292.70427    
      9910   421.19782     -62.144817    
      9920   420.65643      39.930474    
      9930   419.5545      -79.567611    
      9940   425.80211     -274.15038    
      9950   424.78577     -457.05569    
      9960   423.02427     -424.29082    
      9970   426.44841     -189.12027    
      9980   423.48487     -53.245336    
      9990   422.94478     -72.300307    
     10000   423.71833     -204.61869    
     10010   421.08866     -341.10672    
     10020   422.59202     -314.35797    
     10030   422.66208     -173.52592    
     10040   420.9566      -16.502903    
     10050   422.51808      73.355899    
     10060   422.11414     -1.8708335    
     10070   420.99397     -165.79645    
     10080   422.39821     -257.02294    
     10090   424.55456     -172.43728    
     10100   424.73765      53.852652    
     10110   424.19934      240.94859    
     10120   426.4202       215.05183    
     10130   424.25403     -61.415713    
     10140   422.7025      -288.2914     
     10150   424.54328     -188.71232    
     10160   419.86946      126.2234     
     10170   420.39339      433.02659    
     10180   423.2419       415.79181    
     10190   419.51362      42.09287     
     10200   422.45982     -253.33198    
     10210   424.61161     -241.70006    
     10220   421.32449      42.133229    
     10230   424.42985      399.44462    
     10240   423.84509      406.52738    
     10250   419.82798      19.924487    
     10260   421.56931     -374.95708    
     10270   420.62971     -471.6085     
     10280   419.75979     -155.6334     
     10290   423.89634      317.14559    
     10300   423.62581      462.15695    
     10310   423.6629       207.54218    
     10320   425.54991     -160.63742    
     10330   422.46689     -322.93581    
     10340   422.94249     -67.923512    
     10350   424.43748      373.1744     
     10360   421.68161      585.83892    
     10370   423.12578      439.31438    
     10380   424.10258      36.673405    
     10390   422.36455     -283.98536    
     10400   423.23246     -223.58625    
     10410   423.2207       112.92779    
     10420   422.45428      401.40561    
     10430   423.01535      388.56175    
     10440   421.87271      70.705905    
     10450   420.60801     -258.37815    
     10460   422.04243     -293.53121    
     10470   420.33499     -46.640749    
     10480   419.05382      274.41425    
     10490   421.11706      377.31326    
     10500   419.72096      91.417283    
     10510   420.20945     -321.55457    
     10520   422.6451      -505.08631    
     10530   421.78977     -343.64173    
     10540   420.90989      3.5979117    
     10550   418.63298      161.97022    
     10560   417.4807      -47.413335    
     10570   416.95608     -464.24071    
     10580   416.39353     -699.69721    
     10590   419.69798     -482.10636    
     10600   419.35148     -41.974641    
     10610   417.25075      237.68134    
     10620   419.39259      157.82173    
     10630   416.67981     -236.97985    
     10640   415.07285     -505.61534    
     10650   420.93728     -317.74264    
     10660   420.74672      100.07848    
     10670   420.55443      428.92238    
     10680   424.13158      413.96396    
     10690   420.68049      20.238011    
     10700   418.45424     -302.27288    
     10710   421.4774      -182.50063    
     10720   420.65637      236.57334    
     10730   419.14028      587.88385    
     10740   420.55672      559.57982    
     10750   417.83391      104.47707    
     10760   413.16114     -379.95918    
     10770   412.54974     -439.9838     
     10780   412.95135     -75.062571    
     10790   412.02814      332.61775    
     10800   414.15841      409.30047    
     10810   417.85793      38.594459    
     10820   415.78095     -516.33597    
     10830   416.15893     -708.1029     
     10840   419.33618     -377.21244    
     10850   416.11872      108.28024    
     10860   416.82909      395.11048    
     10870   420.64372      248.68382    
     10880   416.64963     -238.40122    
     10890   415.121       -537.72231    
     10900   418.70419     -369.88264    
     10910   416.14713      15.20715     
     10920   413.97871      292.54012    
     10930   418.36816      248.04755    
     10940   417.28521     -146.16692    
     10950   415.0665      -502.70852    
     10960   417.83095     -479.75442    
     10970   417.68174     -179.12768    
     10980   415.93084      122.05158    
     10990   415.21077      173.60804    
     11000   413.63912     -69.39455     
     11010   413.30922     -352.29817    
     11020   413.80177     -416.39222    
     11030   414.95306     -232.02133    
     11040   420.11302      26.042512    
     11050   421.026        72.386209    
     11060   418.3151      -103.77588    
     11070   420.67584     -267.75861    
     11080   416.47953     -368.5546     
     11090   411.4778      -316.68377    
     11100   415.05363     -107.90886    
     11110   412.46156     -15.892489    
     11120   411.40545     -65.899516    
     11130   416.36173     -177.29527    
     11140   415.56676     -328.73955    
     11150   415.47151     -352.00079    
     11160   417.19373     -227.62344    
     11170   416.00502     -118.6422     
     11180   415.29831     -119.47209    
     11190   414.21365     -221.0325     
     11200   413.58374     -296.13805    
     11210   412.85813     -251.11878    
     11220   412.11954     -102.44935    
     11230   414.47277      35.077486    
     11240   415.10424      9.0716604    
     11250   414.86688     -96.098138    
     11260   415.00548     -105.273      
     11270   412.58209      13.447971    
     11280   411.78523      195.06502    
     11290   411.05247      251.02042    
     11300   410.86838      120.88251    
     11310   412.38445     -44.179272    
     11320   411.25967     -98.677677    
     11330   412.13157      30.931429    
     11340   411.86659      189.78683    
     11350   409.2131       201.18242    
     11360   410.81307      81.984946    
     11370   411.45735     -86.324599    
     11380   411.59649     -143.44944    
     11390   414.56462     -31.359661    
     11400   414.95505      91.996009    
     11410   415.16421      115.55387    
     11420   415.85602      15.137476    
     11430   414.08631     -147.35729    
     11440   413.95903     -222.65353    
     11450   412.44532     -191.65698    
     11460   410.38147     -88.170224    
     11470   410.71271      23.163296    
     11480   407.68642      20.140458    
     11490   407.59004     -34.7512      
     11500   409.53367     -67.401392    
     11510   407.27535     -48.948548    
     11520   408.83345      95.514157    
     11530   409.90893      240.52519    
     11540   408.44934      269.88008    
     11550   410.42787      209.81591    
     11560   411.15487      82.332468    
     11570   411.66257      5.8657891    
     11580   412.21659      49.694361    
     11590   410.30707      152.36261    
     11600   411.13332      241.86405    
[...]
    161400   100.5068      -1226.8519     -31.14416      -237.3808       169.31486      40.319877      44.434258     -13690.673      751.26918      1280.677       3824.6768    
    161500   100.49121     -1218.5558      55.760985      28.515302      169.37963      40.304487      44.388003     -13724.743      749.7872       1288.8009      3836.4582    
    161600   100.21507     -473.05727      296.86393      460.10125      169.4444       40.291526      44.342633     -13686.561      756.38566      1243.3474      3824.1803    
    161700   101.25155     -1105.987       17.616818     -143.42941      169.50918      40.351276      44.378854     -13700.895      738.45914      1272.8873      3791.559     
    161800   100.00415     -914.1301       153.63065      171.91395      169.57395      40.361435      44.399118     -13686.984      744.8224       1276.8783      3802.3328    
    161900   100.08938     -1085.6257      52.56024      -121.07754      169.63872      40.367717      44.401453     -13713.315      740.94524      1269.2567      3836.1442    
    162000   100.3947      -1158.6799     -21.875927     -137.76137      169.70349      40.364554      44.401963     -13685.008      727.04888      1285.7918      3802.4347    
    162100   99.782156     -892.68751      99.262635      15.361419      169.76827      40.34838       44.407101     -13716.623      743.62867      1271.8268      3840.7023    
    162200   100.80134     -974.97055      111.93704     -88.762111      169.83304      40.346437      44.394776     -13739.329      732.57997      1275.6727      3843.6449    
    162300   99.560758     -1155.9824      6.3979781     -54.47685       169.89781      40.362671      44.374835     -13695.8        737.56976      1292.7378      3813.5974    
    162400   99.844289     -787.19021      98.679425      166.41235      169.96258      40.38651       44.405307     -13699.271      751.33459      1278.6108      3803.4282    
    162500   100.76496     -422.04335      67.388082      108.78183      170.02736      40.38371       44.443098     -13692.645      725.79942      1271.0253      3801.2395    
    162600   99.374237     -1074.7798     -217.23561     -374.6493       170.09213      40.391869      44.482788     -13683.242      744.54411      1282.8188      3800.3683    
    162700   99.685233     -1181.4261      36.171187     -224.58076      170.1569       40.391057      44.482183     -13682.569      743.36087      1281.1927      3792.3811    
    162800   99.996346     -1036.6769      100.63137     -24.829793      170.22167      40.39769       44.437746     -13682.757      738.78353      1274.6135      3805.1778    
    162900   99.330047     -751.72276     -281.48713     -39.860473      170.28644      40.41587       44.389511     -13706.616      752.33059      1267.9566      3841.2044    
    163000   100.10556     -958.14172     -79.767498     -38.339426      170.35122      40.464911      44.349523     -13683.373      735.47366      1275.7434      3811.9702    
    163100   101.15082     -1139.4656     -246.0397      -181.10547      170.41599      40.538033      44.340263     -13690.067      742.08186      1247.9139      3809.4608    
    163200   99.982859     -970.66538     -187.25887      91.766637      170.48076      40.506305      44.312548     -13729.269      749.47904      1281.4158      3824.1587    
    163300   99.455933     -649.01382      218.15321      169.71899      170.54553      40.442614      44.323563     -13732.19       753.96875      1283.2921      3841.5165    
    163400   99.667216     -838.0372      -25.554035     -150.81684      170.61031      40.428944      44.328275     -13751.559      749.11568      1279.5876      3862.7434    
    163500   100.27851     -925.00899      25.745948     -175.55403      170.67508      40.433245      44.325036     -13727.005      748.80811      1273.7896      3822.3471    
    163600   100.5179      -835.7241      -37.388304     -133.40489      170.73985      40.473553      44.32106      -13720.869      732.23277      1272.4452      3833.6565    
    163700   100.58461     -1076.0048      12.46743       154.67437      170.80462      40.487288      44.286342     -13702.34       757.92069      1278.1953      3789.4579    
    163800   100.05132     -977.14949     -103.71626     -177.08083      170.8694       40.532585      44.277766     -13693.751      737.42252      1261.3635      3833.5979    
    163900   99.464011     -740.02435      86.1523       -74.049307      170.93417      40.583538      44.265246     -13694.173      743.03615      1288.4237      3814.376     
    164000   100.08803     -605.11668     -8.4470715      20.570695      170.99894      40.602507      44.266455     -13700.636      741.35213      1282.4146      3820.0449    
    164100   100.33327     -876.88228     -59.488906      21.508891      171.06371      40.587879      44.301705     -13671.5        728.82348      1251.2862      3824.454     
    164200   99.777374     -510.39597      194.90901      209.80861      171.12849      40.540876      44.316645     -13678.175      739.96329      1275.6553      3818.5516    
    164300   100.33942     -875.21268      20.13586      -27.914225      171.19326      40.494691      44.360207     -13683.352      738.18294      1266.895       3823.2351    
    164400   100.30627     -726.56464      23.479317      1.739191       171.25803      40.468721      44.389397     -13688.843      756.68833      1267.1083      3813.4052    
    164500   99.922675     -685.84032      99.620296     -15.561933      171.3228       40.490798      44.4251       -13666.125      746.09522      1271.2211      3794.9862    
    164600   100.47813     -851.97864     -63.225178     -148.23765      171.38757      40.524305      44.436476     -13707.028      730.25016      1278.5559      3823.6092    
    164700   99.259838     -766.19791     -46.405222      57.061504      171.45235      40.54772       44.416298     -13664.509      746.79718      1256.1786      3833.3912    
    164800   99.741332     -862.78711      103.18193     -1.2489667      171.51712      40.555937      44.388072     -13668.478      749.13915      1289.0475      3792.8894    
    164900   101.40698     -654.46725     -85.105371     -276.35278      171.58189      40.573327      44.374738     -13679.883      745.8933       1238.0399      3804.71      
    165000   100.28306     -869.45021     -123.75918     -96.71907       171.64666      40.56946       44.382471     -13701.655      741.54841      1275.6398      3808.0927    
    165100   99.776319     -879.88154      122.57062      177.53539      171.71144      40.58158       44.356004     -13689.558      748.85597      1259.4053      3813.2508    
    165200   100.77821     -704.31593      227.59505      29.637738      171.77621      40.606449      44.347853     -13694.23       738.44049      1258.1603      3812.1436    
    165300   99.935214     -672.70476      11.486306     -195.60579      171.84098      40.646102      44.354815     -13691.666      738.63139      1286.0771      3796.8175    
    165400   100.68199     -553.38784      0.52519407    -69.854652      171.90575      40.620414      44.342652     -13683.646      734.73056      1252.7775      3805.5475    
    165500   100.20181     -477.2607      -112.19187      67.494412      171.97053      40.603627      44.326444     -13676.013      756.09274      1233.4846      3802.748     
    165600   100.38358     -847.74392      32.531661      137.55405      172.0353       40.566536      44.385644     -13689.264      729.81138      1282.9816      3790.5679    
    165700   98.765651     -431.89132      242.08088     -83.926692      172.10007      40.515106      44.418554     -13674.13       748.89011      1264.5591      3826.2086    
    165800   99.356248     -718.47717     -103.23999     -51.008552      172.16484      40.501047      44.439407     -13680.284      761.33255      1277.8251      3802.9824    
    165900   99.922679     -988.22754     -39.227623      142.29563      172.22961      40.503815      44.450881     -13677.95       753.70037      1267.4437      3814.4539    
    166000   100.52378     -883.23692     -47.839733     -136.04209      172.29439      40.496665      44.491696     -13687.085      747.73844      1257.4951      3811.3231    
    166100   99.56466      -1016.1828     -113.26023     -288.04241      172.35916      40.470595      44.501559     -13677.196      743.20032      1276.3786      3811.7057    
    166200   99.986143     -698.85147      52.170652     -35.381582      172.42393      40.470489      44.487616     -13666.387      749.97122      1282.4298      3772.3734    
    166300   99.719647     -468.18251      109.38905      92.922898      172.4887       40.498459      44.52506      -13671.091      756.49214      1261.9107      3806.7732    
    166400   99.196421     -755.11834      113.06355     -23.340165      172.55348      40.530815      44.550243     -13638.241      751.35634      1274.6674      3785.21      
    166500   99.448215     -993.14835     -313.54622     -76.262377      172.61825      40.571656      44.531328     -13635.362      749.4027       1285.7155      3785.9698    
    166600   100.88838     -671.20451     -287.52603     -40.971573      172.68302      40.552168      44.47052      -13670.778      757.68264      1242.453       3811.3203    
    166700   99.278576     -803.78216     -18.109751     -9.6038289      172.74779      40.506487      44.446874     -13698.709      756.56393      1282.9705      3829.0556    
    166800   100.16454     -599.90611      76.697369      144.46258      172.81257      40.518251      44.453166     -13687.328      759.95088      1277.1699      3789.9806    
    166900   99.390204     -842.60188     -52.080291     -160.90438      172.87734      40.550865      44.503345     -13670.055      746.80688      1278.6409      3804.7114    
    167000   99.538778     -831.74159      21.34783       142.52265      172.94211      40.574117      44.472401     -13684.877      762.73297      1297.8425      3778.4011    
    167100   100.26029     -587.41165     -132.54016      152.50106      173.00688      40.628399      44.461162     -13666.236      743.83382      1275.722       3784.4184    
    167200   99.765331     -428.98263      249.66179     -37.893429      173.07165      40.653484      44.430846     -13661.616      752.02937      1257.7995      3807.0835    
    167300   100.45875     -729.9302      -10.690838     -6.9808675      173.13643      40.694628      44.384693     -13669.736      742.4058       1274.2037      3787.5169    
    167400   101.33264     -415.96408      203.82988      64.2644        173.2012       40.680722      44.38254      -13684.472      743.71435      1271.1441      3776.1809    
    167500   99.740825     -834.86664      47.460093      173.02333      173.26597      40.675745      44.37996      -13679.195      756.47935      1258.6992      3811.9442    
    167600   100.18883     -567.6536       113.76904      41.390188      173.33074      40.614494      44.3381       -13693.346      752.40224      1282.0135      3781.0352    
    167700   100.43871     -863.06324     -4.266807      -135.77437      173.39552      40.620583      44.373363     -13686.19       739.46542      1265.6937      3803.3769    
    167800   99.988567     -682.71261      31.598825     -18.575437      173.46029      40.622322      44.35538      -13699.702      759.24213      1294.0107      3782.9495    
    167900   99.637933     -721.8507      -92.866046      175.16348      173.52506      40.650735      44.310166     -13656.6        747.79512      1278.4474      3773.579     
    168000   99.58153      -985.34241      94.076271     -166.71099      173.58983      40.724343      44.312969     -13668.948      758.6139       1243.9026      3820.7731    
    168100   100.01314     -724.00683     -168.1376      -38.697974      173.65461      40.767335      44.323958     -13640.362      753.93389      1264.3202      3758.1874    
    168200   100.32674     -622.1595      -51.152962     -97.17369       173.71938      40.731746      44.336074     -13650.462      750.12793      1282.5112      3743.1944    
    168300   99.867602     -767.27683     -15.245224      63.379687      173.78415      40.678101      44.32569      -13647.532      748.34942      1261.3824      3771.907     
    168400   99.361597     -355.34272      363.83251     -131.43494      173.84892      40.625679      44.315924     -13665.226      764.66479      1267.1679      3782.0513    
    168500   100.72968     -576.64952     -350.08668      61.836024      173.9137       40.69342       44.316996     -13660.422      746.15052      1260.2351      3761.1261    
    168600   99.297314     -897.49105     -103.76238      37.367017      173.97847      40.717305      44.330023     -13655.531      742.91413      1275.1825      3787.3291    
    168700   99.560919     -264.18328      121.2189       42.197579      174.04324      40.7501        44.311227     -13635.747      730.05189      1265.4484      3773.3482    
    168800   99.720098     -674.30431     -44.833895     -2.0968727      174.10801      40.794353      44.328652     -13627.242      740.30947      1268.0782      3751.8554    
    168900   100.54469     -601.88379     -44.060629     -126.87207      174.17278      40.811702      44.336216     -13640.247      740.165        1256.2867      3753.402     
    169000   100.44054     -772.79645     -13.145919     -112.02996      174.23756      40.847184      44.356175     -13628.158      749.78956      1259.2387      3749.0226    
    169100   100.14421     -849.82429     -165.72436      81.21488       174.30233      40.834299      44.369425     -13628.609      745.29228      1271.2804      3760.0493    
    169200   100.312       -935.42052      197.13196      57.658937      174.3671       40.748898      44.392339     -13655.721      758.87512      1270.491       3764.0003    
    169300   100.43268     -571.64388     -0.11134341     13.668167      174.43187      40.737216      44.360652     -13647.138      764.01588      1249.7757      3754.292     
    169400   101.24384     -744.21166     -11.328298      130.84688      174.49665      40.750546      44.356095     -13664.113      738.95634      1254.5346      3759.4711    
    169500   99.955274     -847.80562     -101.68895      135.34227      174.56142      40.746976      44.38395      -13672.904      751.42937      1276.8402      3771.4655    
    169600   99.189127     -328.24888      69.275018      22.014538      174.62619      40.682293      44.387126     -13668.85       744.2203       1298.8365      3775.2753    
    169700   99.816861     -766.12346      99.304728      64.619217      174.69096      40.671403      44.393174     -13668.249      746.78316      1275.6568      3780.6787    
    169800   99.841805     -862.00521      182.17913      79.534279      174.75574      40.7157        44.375913     -13670.227      746.20973      1278.9541      3765.8572    
    169900   101.49188     -481.23061     -136.94139      11.453486      174.82051      40.741706      44.379121     -13684.831      735.38627      1251.9782      3770.1463    
    170000   99.649168     -663.87745     -47.09047      -266.22416      174.88528      40.711222      44.437267     -13671.362      750.49008      1248.9649      3783.8935    
    170100   99.818497     -776.97731     -190.96831     -214.95549      174.95005      40.717197      44.448588     -13672.202      757.65391      1259.8793      3765.9815    
    170200   100.46145     -651.54496      120.93472      204.41056      175.01482      40.710526      44.395814     -13690.781      744.15587      1273.0408      3766.8385    
    170300   100.60424     -974.8899      -297.41292     -290.4294       175.0796       40.744755      44.380993     -13691.481      747.65323      1241.548       3786.6878    
    170400   99.972149     -619.06285     -17.991665     -56.142195      175.14437      40.714621      44.37969      -13678.106      742.59553      1260.2452      3779.0478    
    170500   100.81708     -358.41914     -130.97392     -129.72764      175.20914      40.696648      44.412336     -13693.851      747.70942      1262.9962      3761.2593    
    170600   99.714941     -710.6393      -73.848013      78.843922      175.27391      40.646029      44.376165     -13707.117      739.43833      1271.628       3802.6521    
    170700   101.13818     -678.17843      273.6476       47.788518      175.33869      40.654035      44.358445     -13705.294      733.58635      1249.8214      3788.5709    
    170800   100.92776     -246.42328      90.454836     -141.84213      175.40346      40.738128      44.35117      -13690.893      739.93577      1252.8422      3767.8302    
    170900   99.487571     -482.8124       157.98909     -65.617563      175.46823      40.757412      44.296974     -13688.008      756.88446      1237.4647      3797.1023    
    171000   100.32283     -504.00914     -81.410533      114.03788      175.533        40.776877      44.283596     -13693.873      747.60575      1249.7764      3769.7867    
    171100   99.459212     -482.57283     -50.799522      194.27456      175.59778      40.771618      44.315647     -13682.398      742.79808      1260.9243      3784.0315    
    171200   99.781404     -761.18084      148.18207      133.3598       175.66255      40.77901       44.359895     -13667.639      732.39574      1255.7628      3789.7082    
    171300   100.18208     -440.71448      285.04824     -93.821005      175.72732      40.752151      44.401756     -13688.421      749.97692      1257.8092      3792.7596    
    171400   100.95653     -312.88097     -139.38094      129.57698      175.79209      40.715256      44.423835     -13686.818      746.77031      1249.2074      3768.291     
    171500   100.27191     -534.0666      -267.1073      -90.160331      175.85686      40.658569      44.458474     -13679.453      745.80656      1271.6172      3747.1888    
    171600   99.203566     -462.38553      403.89196      333.76542      175.92164      40.587953      44.447427     -13669.177      736.29507      1266.673       3780.8903    
    171700   99.832371     -756.19504      277.05164      12.964816      175.98641      40.602357      44.508624     -13672.18       746.40186      1286.5183      3743.9278    
    171800   100.84242     -482.76852     -87.882873     -318.543        176.05118      40.64994       44.494849     -13698.779      743.91901      1249.2809      3783.9963    
Loop time of 836.191 on 6 procs for 171800 steps with 10000 atoms

Performance: 17.751 ns/day, 1.352 hours/ns, 205.455 timesteps/s
95.3% CPU use with 6 MPI tasks x 1 OpenMP threads

MPI task timing breakdown:
Section |  min time  |  avg time  |  max time  |%varavg| %total
---------------------------------------------------------------
Pair    | 284.82     | 308.48     | 332.16     |  94.0 | 36.89
Bond    | 43.097     | 46.047     | 47.692     |  24.2 |  5.51
Neigh   | 81.517     | 81.556     | 81.603     |   0.3 |  9.75
Comm    | 332.13     | 357.31     | 382.55     |  95.6 | 42.73
Output  | 0.12874    | 0.13139    | 0.13294    |   0.5 |  0.02
Modify  | 39.738     | 39.969     | 40.213     |   2.6 |  4.78
Other   |            | 2.7        |            |       |  0.32

Nlocal:        1666.67 ave        1986 max        1236 min
Histogram: 1 1 0 1 0 0 0 0 0 3
Nghost:         6601.5 ave        7362 max        5810 min
Histogram: 3 0 0 0 0 0 0 0 0 3
Neighs:         153902 ave      202578 max      104770 min
Histogram: 1 2 0 0 0 0 0 0 2 1

Total # of neighbors = 923415
Ave neighs/atom = 92.3415
Ave special neighs/atom = 5.988
Neighbor list builds = 8440
Dangerous builds = 0
unfix           1
unfix           2
unfix           def1
unfix           def2
print           "All done"
All done
Total wall time: 0:25:57
