LAMMPS data file via write_data, version 29 Oct 2020, timestep = 31

3000 atoms
5 atom types

-33.32106912424858 33.32106912424858 xlo xhi
-7.937005259840997 7.937005259840997 ylo yhi
-7.937005259840997 7.937005259840997 zlo zhi

Masses

1 1
2 1
3 1
4 1
5 1

PairIJ Coeffs # lj/cut

1 1 1 1 2.5
1 2 1 1 2.5
1 3 1 1 2.5
1 4 0.8 1 2.5
1 5 1.41421 1.73205 2.5
2 2 1 1 2.5
2 3 1 1 2.5
2 4 0.8 1 2.5
2 5 0.1 3 2.5
3 3 1 1 2.5
3 4 0.8 1 2.5
3 5 1.41421 1.73205 2.5
4 4 1 1 2.5
4 5 1.41421 1.73205 2.5
5 5 2 3 2.5

Atoms # atomic

1 1 -33.31376707940953 -7.937005259840997 -7.937005259840997 0 0 0
2 1 -32.541721565348084 -7.143304733856898 -7.937005259840997 0 0 0
3 1 -32.541721565348084 -7.937005259840997 -7.143304733856898 0 0 0
4 1 -33.31376707940953 -7.143304733856898 -7.143304733856898 0 0 0
5 1 -31.76967605128665 -7.937005259840997 -7.937005259840997 0 0 0
6 1 -31.76967605128665 -7.143304733856898 -7.143304733856898 0 0 0
2251 4 -26.21404157784417 -6.609639666537171 -7.571893469540788 0 0 0
2339 4 -21.265222784649623 -6.863344325446078 -7.260968958078606 0 0 0
2288 4 -13.659725461087076 -6.666289393219923 -7.4071445353855 0 0 0
601 2 0.0 -7.937005259840997 -7.937005259840997 0 0 0
602 2 0.0 -7.143304733856898 -7.143304733856898 0 0 0
2952 5 12.033850099135991 -7.052945548879968 -7.039412458146741 0 0 0
801 3 31.76967605128665 -7.937005259840997 -7.937005259840997 0 0 0
804 3 31.76967605128665 -7.143304733856898 -7.143304733856898 0 0 0
802 3 32.541721565348084 -7.143304733856898 -7.937005259840997 0 0 0
803 3 32.541721565348084 -7.937005259840997 -7.143304733856898 0 0 0
805 3 33.31376707940953 -7.937005259840997 -7.937005259840997 0 0 0
806 3 33.31376707940953 -7.143304733856898 -7.143304733856898 0 0 0
7 1 -33.31376707940953 -6.3496042078727974 -7.937005259840997 0 0 0
8 1 -32.541721565348084 -5.555903681888698 -7.937005259840997 0 0 0
9 1 -32.541721565348084 -6.3496042078727974 -7.143304733856897 0 0 0
10 1 -33.31376707940953 -5.555903681888697 -7.143304733856898 0 0 0
11 1 -31.76967605128665 -6.3496042078727974 -7.937005259840997 0 0 0
12 1 -31.76967605128665 -5.555903681888697 -7.143304733856898 0 0 0
1553 4 -28.03396185780558 -5.9127833763468 -6.613142740940857 0 0 0
2021 4 -22.087261189061888 -6.087247396621077 -7.089166509315137 0 0 0
2282 4 -21.080078606705673 -5.754690034328895 -6.743974268501012 0 0 0
1951 4 -17.57659375961494 -5.579387011321083 -6.909146415296139 0 0 0
1852 4 -13.932877456519314 -5.744551249736334 -6.812173907005499 0 0 0
1560 4 -12.083610093795848 -5.851260751754167 -7.642735173904794 0 0 0
1770 4 -11.586968983532604 -5.306744229796391 -6.794542112113439 0 0 0
2085 4 -10.129265570454073 -5.840990202365971 -7.6007164160651834 0 0 0
603 2 0.0 -6.3496042078727974 -7.937005259840997 0 0 0
604 2 0.0 -5.555903681888697 -7.143304733856898 0 0 0
2553 4 3.7083305404182076 -5.920633676265779 -6.606620478171896 0 0 0
2852 4 17.84991986141986 -5.862094830746175 -6.885957317291928 0 0 0
2560 4 19.666203742038896 -5.8491566753907325 -7.6440856378766044 0 0 0
2770 4 20.156133718947178 -5.30586153267078 -6.792497222320112 0 0 0
807 3 31.76967605128665 -6.3496042078727974 -7.937005259840997 0 0 0
810 3 31.76967605128665 -5.555903681888697 -7.143304733856898 0 0 0
808 3 32.541721565348084 -5.555903681888698 -7.937005259840997 0 0 0
809 3 32.541721565348084 -6.3496042078727974 -7.143304733856897 0 0 0
811 3 33.31376707940953 -6.3496042078727974 -7.937005259840997 0 0 0
812 3 33.31376707940953 -5.555903681888697 -7.143304733856898 0 0 0
13 1 -33.31376707940953 -4.762203155904598 -7.937005259840997 0 0 0
14 1 -32.541721565348084 -3.9685026299204984 -7.937005259840997 0 0 0
15 1 -32.541721565348084 -4.762203155904598 -7.143304733856898 0 0 0
16 1 -33.31376707940953 -3.9685026299204984 -7.143304733856898 0 0 0
17 1 -31.76967605128665 -4.762203155904598 -7.937005259840997 0 0 0
18 1 -31.76967605128665 -3.9685026299204984 -7.143304733856898 0 0 0
2096 4 -27.660145365379304 -3.6932891862783097 -7.58255834218513 0 0 0
1572 4 -26.631631501925614 -4.111721619586918 -7.909811407181161 0 0 0
1870 4 -26.091821648696108 -3.528154620924875 -7.1467917648717085 0 0 0
2231 4 -27.44313573269539 -4.8137343573091655 -7.61734438296834 0 0 0
1494 4 -25.587263269232604 -4.544793561976375 -7.160397705225648 0 0 0
1958 4 -23.819458614140625 -4.996858292386294 -7.198284063329929 0 0 0
1657 4 -22.481650394128632 -4.565718096832565 -7.514614974329137 0 0 0
2095 4 -21.415156196716104 -4.728209549989906 -7.153894029793794 0 0 0
1816 4 -15.782007118391718 -4.860203527783716 -7.936820374087861 0 0 0
605 2 0.0 -4.762203155904598 -7.937005259840997 0 0 0
606 2 0.0 -3.9685026299204984 -7.143304733856898 0 0 0
2494 4 6.164920194263483 -4.533411827265141 -7.1442536958563165 0 0 0
2572 4 4.995931666012357 -4.1643233670085 7.8983363395833095 0 0 -1
2870 4 5.62141684557146 -3.543759146692757 -7.301142091200483 0 0 0
2657 4 9.599744583071324 -4.582544508094713 -7.421865996374833 0 0 0
2816 4 15.965730416520692 -4.85691827255719 -7.928448488761367 0 0 0
813 3 31.76967605128665 -4.762203155904598 -7.937005259840997 0 0 0
816 3 31.76967605128665 -3.9685026299204984 -7.143304733856898 0 0 0
814 3 32.541721565348084 -3.9685026299204984 -7.937005259840997 0 0 0
815 3 32.541721565348084 -4.762203155904598 -7.143304733856898 0 0 0
817 3 33.31376707940953 -4.762203155904598 -7.937005259840997 0 0 0
818 3 33.31376707940953 -3.9685026299204984 -7.143304733856898 0 0 0
19 1 -33.31376707940953 -3.1748021039363987 -7.937005259840997 0 0 0
20 1 -32.541721565348084 -2.381101577952299 -7.937005259840997 0 0 0
21 1 -32.541721565348084 -3.1748021039363987 -7.143304733856898 0 0 0
22 1 -33.31376707940953 -2.381101577952299 -7.143304733856898 0 0 0
23 1 -31.76967605128665 -3.1748021039363987 -7.937005259840997 0 0 0
24 1 -31.76967605128665 -2.381101577952299 -7.143304733856898 0 0 0
1653 4 -26.82772105952486 -2.6945316134356627 -7.103133974035846 0 0 0
1649 4 -22.92283029847637 -3.050317988376942 -7.6850566327133505 0 0 0
2194 4 -23.448074316620918 -2.11112903052005 -7.34575252363442 0 0 0
2142 4 -17.875637724950263 -2.9997887422474157 -7.7491069238814365 0 0 0
2002 4 -16.31513208239599 -3.051759342576158 -7.855463047407953 0 0 0
2006 4 -16.26622356893221 -3.2783797372164964 -6.716805881972486 0 0 0
2358 4 -10.666667755163292 -2.528525972303586 -7.191851626512556 0 0 0
2074 4 -9.171558446623187 -2.798981802397108 -6.477797247965031 0 0 0
1415 4 -5.7010090420556425 -2.960101840252226 -6.377042779768077 0 0 0
1900 4 -3.628008596353943 -2.980542351058183 -6.840029227532123 0 0 0
1929 4 -4.654428409190641 -2.1701600204724634 -7.383758793156887 0 0 0
2205 4 -5.19703216078683 -3.128946780456602 -7.76408923303538 0 0 0
2286 4 -4.688477993617863 -3.1988308975615727 -6.773280739511367 0 0 0
607 2 0.0 -3.1748021039363987 -7.937005259840997 0 0 0
608 2 0.0 -2.381101577952299 -7.143304733856898 0 0 0
2653 4 4.9459525700703955 -2.6689963917029482 -7.048401120152607 0 0 0
2649 4 8.727300291060235 -2.8607961160826005 -7.608729681762587 0 0 0
2415 4 26.446896639231248 -3.079835586360801 -6.411575080895025 0 0 0
2929 4 26.750876511630242 -2.941066582024128 -7.4614857172757985 0 0 0
2900 4 27.678736018288905 -3.0374469475683177 -6.806481455911069 0 0 0
819 3 31.76967605128665 -3.1748021039363987 -7.937005259840997 0 0 0
822 3 31.76967605128665 -2.381101577952299 -7.143304733856898 0 0 0
820 3 32.541721565348084 -2.381101577952299 -7.937005259840997 0 0 0
821 3 32.541721565348084 -3.1748021039363987 -7.143304733856898 0 0 0
823 3 33.31376707940953 -3.1748021039363987 -7.937005259840997 0 0 0
824 3 33.31376707940953 -2.381101577952299 -7.143304733856898 0 0 0
25 1 -33.31376707940953 -1.5874010519681994 -7.937005259840997 0 0 0
26 1 -32.541721565348084 -0.7937005259840997 -7.937005259840997 0 0 0
27 1 -32.541721565348084 -1.5874010519681994 -7.143304733856898 0 0 0
28 1 -33.31376707940953 -0.7937005259840997 -7.143304733856898 0 0 0
29 1 -31.76967605128665 -1.5874010519681994 -7.937005259840997 0 0 0
30 1 -31.76967605128665 -0.7937005259840997 -7.143304733856898 0 0 0
2046 4 -21.925080752704417 -1.9801919815472044 -7.090785258270323 0 0 0
2318 4 -20.558888121762383 -1.6832446560340832 -7.525572373157559 0 0 0
1991 4 -15.209389133234167 -1.3192332268697258 -7.053628496579719 0 0 0
1848 4 -9.106586953989451 -0.8105766474388449 -6.703673745084513 0 0 0
1896 4 -8.646888823906707 -1.817051120365316 -6.552784139608984 0 0 0
2324 4 -5.877076938361682 -1.5615829318079142 -6.839319281092437 0 0 0
2112 4 -3.5385770456319667 -1.0949500490377293 -7.636944820151453 0 0 0
609 2 0.0 -1.5874010519681994 -7.937005259840997 0 0 0
610 2 0.0 -0.7937005259840997 -7.143304733856898 0 0 0
2848 4 22.673235628997467 -0.8911377699623789 -6.704447897003099 0 0 0
2896 4 22.915347763438444 -1.9922004475767032 -6.582262432878063 0 0 0
2962 5 27.67042601435552 -1.411268539102735 7.815104618038235 0 0 -1
825 3 31.76967605128665 -1.5874010519681994 -7.937005259840997 0 0 0
828 3 31.76967605128665 -0.7937005259840997 -7.143304733856898 0 0 0
826 3 32.541721565348084 -0.7937005259840997 -7.937005259840997 0 0 0
827 3 32.541721565348084 -1.5874010519681994 -7.143304733856898 0 0 0
829 3 33.31376707940953 -1.5874010519681994 -7.937005259840997 0 0 0
830 3 33.31376707940953 -0.7937005259840997 -7.143304733856898 0 0 0
31 1 -33.31376707940953 2.0070784565712057e-18 -7.937005259840997 0 0 0
33 1 -32.541721565348084 7.630607069192929e-19 -7.143304733856898 0 0 0
35 1 -31.76967605128665 -1.52522028639718e-18 -7.937005259840997 0 0 0
2201 4 -28.03178583447513 -0.2538567447015353 -7.732643584942211 0 0 0
1638 4 -27.165320898572165 -0.3742551454955974 -7.002929455538749 0 0 0
2137 4 -25.058258287164737 -0.13334922938370264 -6.614187286997294 0 0 0
1914 4 -23.760725071074923 0.5473231750703834 -6.519835723587868 0 0 0
2165 4 -17.489978552549296 -0.061539607331404525 -7.588662808215807 0 0 0
2316 4 -16.038681880627877 0.6445962520681464 -7.621263669887883 0 0 0
1921 4 -12.342680796660462 0.4436551294785832 -7.1012006814420054 0 0 0
2018 4 -12.246590681042807 -0.6347293547469722 -7.42642953034824 0 0 0
2091 4 -9.74667083113928 0.055349480365140404 -6.836696999024328 0 0 0
1658 4 -8.095661873187314 0.08710075031158152 -6.822067147289638 0 0 0
2262 4 -8.086622647782423 -0.5222244561393122 -7.743730834802283 0 0 0
1660 4 -5.8629196384984 0.5494187163317277 -7.218337205357331 0 0 0
2377 4 -6.3051050608568575 -0.5314949112923394 -6.620753363157928 0 0 0
1439 4 -4.651295551217818 0.5274403742684055 -7.621794175467094 0 0 0
1452 4 -4.761508033632058 -0.33412786728440536 -6.93540394158235 0 0 0
1877 4 -3.721467316986137 0.0274089507040415 -7.20516363575734 0 0 0
611 2 0.0 0.0 -7.937005259840997 0 0 0
2638 4 4.600278961514934 -0.38897709979158573 -6.962186155254842 0 0 0
2914 4 7.9856966922537165 0.5695400893744028 -6.51094538922003 0 0 0
2921 4 19.441472285759758 0.3630279514017452 -7.127449706010301 0 0 0
2658 4 23.63990802237126 0.05128308130310177 -6.858210065808366 0 0 0
2660 4 25.91255688298331 0.5758345732851448 -7.226511159021596 0 0 0
2439 4 27.09066112458685 0.49704729117231955 -7.650391242093192 0 0 0
2452 4 26.935117272699152 -0.15204573184007752 -6.778863580585553 0 0 0
2877 4 28.042813259695663 0.18433900822627733 -7.123349330492601 0 0 0
831 3 31.76967605128665 1.2038779310305913e-18 -7.937005259840997 0 0 0
833 3 32.541721565348084 5.099804857094298e-19 -7.143304733856898 0 0 0
835 3 33.31376707940953 1.4550623119740226e-18 -7.937005259840997 0 0 0
32 1 -32.541721565348084 0.7937005259840997 -7.937005259840997 0 0 0
34 1 -33.31376707940953 0.7937005259840997 -7.143304733856898 0 0 0
37 1 -33.31376707940953 1.5874010519681994 -7.937005259840997 0 0 0
39 1 -32.541721565348084 1.5874010519681994 -7.143304733856898 0 0 0
36 1 -31.76967605128665 0.7937005259840997 -7.143304733856898 0 0 0
41 1 -31.76967605128665 1.5874010519681994 -7.937005259840997 0 0 0
2152 4 -28.55046855273595 1.795549083335706 -7.707893513841509 0 0 0
1612 4 -26.91145894062571 1.9325954138053592 -7.000114328764033 0 0 0
1942 4 -25.684219309700556 0.8140895351520758 -7.368773648390889 0 0 0
1961 4 -25.66903844322908 1.8570018876087002 -7.811687163566598 0 0 0
2323 4 -22.7891066854034 1.1526214210848305 -6.607032454584132 0 0 0
2212 4 -21.83238564866569 1.6274459207691336 -7.324217876205188 0 0 0
1981 4 -13.54066307442877 0.7724583440473635 -6.943129261089885 0 0 0
1999 4 -14.553631399117444 1.8026456456832651 -7.625874325549616 0 0 0
1829 4 -7.484644838176265 1.2097972486172903 -7.167244769562625 0 0 0
2119 4 -6.678443827781491 1.6942778313631284 -6.528550431199722 0 0 0
2197 4 -3.970611284478997 1.1717409895783126 -6.611867828658758 0 0 0
612 2 0.0 0.7937005259840997 -7.143304733856898 0 0 0
613 2 0.0 1.5874010519681994 -7.937005259840997 0 0 0
2612 4 4.844765564689417 1.9336676855289663 -7.027334041129272 0 0 0
2942 4 6.053327785096413 0.8807312961448523 -7.40494358435169 0 0 0
2967 5 15.323783743669374 1.6961643254564396 -7.593664178818664 0 0 0
2829 4 24.404091603331462 1.3625379759127445 -6.8895026938222825 0 0 0
834 3 31.76967605128665 0.7937005259840997 -7.143304733856898 0 0 0
837 3 31.76967605128665 1.5874010519681994 -7.937005259840997 0 0 0
832 3 32.541721565348084 0.7937005259840997 -7.937005259840997 0 0 0
836 3 33.31376707940953 0.7937005259840997 -7.143304733856898 0 0 0
839 3 32.541721565348084 1.5874010519681994 -7.143304733856898 0 0 0
841 3 33.31376707940953 1.5874010519681994 -7.937005259840997 0 0 0
38 1 -32.541721565348084 2.381101577952299 -7.937005259840997 0 0 0
40 1 -33.31376707940953 2.381101577952299 -7.143304733856898 0 0 0
43 1 -33.31376707940953 3.1748021039363987 -7.937005259840997 0 0 0
45 1 -32.541721565348084 3.1748021039363987 -7.143304733856898 0 0 0
42 1 -31.76967605128665 2.381101577952299 -7.143304733856898 0 0 0
47 1 -31.76967605128665 3.1748021039363987 -7.937005259840997 0 0 0
2280 4 -26.938459725509897 3.6103482609547246 -6.5068536908830374 0 0 0
1967 4 -23.533072333066798 2.319475164372056 7.767153568555873 0 0 -1
2300 4 -22.692668421225193 2.3772545739269457 -7.325710203343947 0 0 0
1903 4 -18.18049694536406 3.075586808358431 -6.759492844275426 0 0 0
1654 4 -17.294490673337403 2.431564774718325 -6.646706317956949 0 0 0
1429 4 -13.0512433342308 3.1723654697734736 -6.665778764019915 0 0 0
1968 4 -12.108668682773034 2.5966862604875276 -6.517969434836792 0 0 0
1417 4 -9.515130797392134 2.1544377138996547 -7.5921849176823155 0 0 0
1532 4 -10.05892038015999 3.1040082966525193 -7.927310269225871 0 0 0
2026 4 -7.9909549558795945 3.4710136298166385 -6.721982157638354 0 0 0
2329 4 -6.618383443492044 2.7877106810684116 -7.059503211725299 0 0 0
614 2 0.0 2.381101577952299 -7.143304733856898 0 0 0
615 2 0.0 3.1748021039363987 -7.937005259840997 0 0 0
2654 4 14.253522082339611 2.648414627353462 -6.331960222554755 0 0 0
2903 4 13.339294948166996 3.134249555990267 -6.714548001702955 0 0 0
2429 4 18.69135763148339 3.1728469821614653 -6.661509331824573 0 0 0
2417 4 22.237315383083065 2.1465705490820786 -7.601598929437493 0 0 0
2532 4 21.694487308026318 3.0893140131745915 -7.917944794660181 0 0 0
840 3 31.76967605128665 2.381101577952299 -7.143304733856898 0 0 0
843 3 31.76967605128665 3.1748021039363987 -7.937005259840997 0 0 0
838 3 32.541721565348084 2.381101577952299 -7.937005259840997 0 0 0
842 3 33.31376707940953 2.381101577952299 -7.143304733856898 0 0 0
845 3 32.541721565348084 3.1748021039363987 -7.143304733856898 0 0 0
847 3 33.31376707940953 3.1748021039363987 -7.937005259840997 0 0 0
44 1 -32.541721565348084 3.9685026299204984 -7.937005259840997 0 0 0
46 1 -33.31376707940953 3.9685026299204984 -7.143304733856898 0 0 0
49 1 -33.31376707940953 4.762203155904598 -7.937005259840997 0 0 0
51 1 -32.541721565348084 4.762203155904598 -7.143304733856898 0 0 0
48 1 -31.76967605128665 3.9685026299204984 -7.143304733856898 0 0 0
53 1 -31.76967605128665 4.762203155904598 -7.937005259840997 0 0 0
1839 4 -25.82956238517048 4.161553025473757 -7.452272653323323 0 0 0
1541 4 -23.208904458215674 4.623570419003877 -7.755089892330068 0 0 0
2075 4 -16.185459532500857 4.6227935661516355 -7.392932813527844 0 0 0
1773 4 -13.264944297816863 4.27155089540025 -6.706289832740501 0 0 0
1468 4 -11.154878618083677 4.47014361046608 -6.751214023967842 0 0 0
2278 4 -8.646081272676433 4.586490190069364 -7.517623253833088 0 0 0
616 2 0.0 3.9685026299204984 -7.143304733856898 0 0 0
617 2 0.0 4.762203155904598 -7.937005259840997 0 0 0
2839 4 5.920686227306336 4.166150985805162 -7.4636222509090295 0 0 0
2541 4 8.574600984967855 4.606573404097714 -7.743671056355146 0 0 0
2977 5 14.482549286252619 4.873028178495206 -7.547617873035319 0 0 0
2773 4 18.478778069857484 4.274723721976563 -6.703677679918031 0 0 0
2468 4 20.597983013517403 4.4769823362516314 -6.742498576016845 0 0 0
846 3 31.76967605128665 3.9685026299204984 -7.143304733856898 0 0 0
849 3 31.76967605128665 4.762203155904598 -7.937005259840997 0 0 0
844 3 32.541721565348084 3.9685026299204984 -7.937005259840997 0 0 0
848 3 33.31376707940953 3.9685026299204984 -7.143304733856898 0 0 0
851 3 32.541721565348084 4.762203155904598 -7.143304733856898 0 0 0
853 3 33.31376707940953 4.762203155904598 -7.937005259840997 0 0 0
50 1 -32.541721565348084 5.555903681888698 -7.937005259840997 0 0 0
52 1 -33.31376707940953 5.555903681888697 -7.143304733856898 0 0 0
55 1 -33.31376707940953 6.3496042078727974 -7.937005259840997 0 0 0
57 1 -32.541721565348084 6.3496042078727974 -7.143304733856897 0 0 0
54 1 -31.76967605128665 5.555903681888697 -7.143304733856898 0 0 0
59 1 -31.76967605128665 6.3496042078727974 -7.937005259840997 0 0 0
1678 4 -26.00278091067644 5.9339298050181535 -6.498644564839313 0 0 0
2128 4 -23.85327289079307 5.166868472765897 -6.944477137444228 0 0 0
1932 4 -22.20073231057243 5.199224816725897 -6.6058104756297436 0 0 0
2009 4 -12.160711838157827 6.259719176699973 -7.659481754273891 0 0 0
1581 4 -3.3189460718761015 6.230751911113308 -6.7104728982276445 0 0 0
618 2 0.0 5.555903681888697 -7.143304733856898 0 0 0
619 2 0.0 6.3496042078727974 -7.937005259840997 0 0 0
2678 4 5.73895518014821 5.935615834834674 -6.498277225974915 0 0 0
2932 4 9.556888854731014 5.199074087007774 -6.605155449467282 0 0 0
2581 4 28.55260908008157 5.917286278466497 -6.544372476810521 0 0 0
852 3 31.76967605128665 5.555903681888697 -7.143304733856898 0 0 0
855 3 31.76967605128665 6.3496042078727974 -7.937005259840997 0 0 0
850 3 32.541721565348084 5.555903681888698 -7.937005259840997 0 0 0
854 3 33.31376707940953 5.555903681888697 -7.143304733856898 0 0 0
857 3 32.541721565348084 6.3496042078727974 -7.143304733856897 0 0 0
859 3 33.31376707940953 6.3496042078727974 -7.937005259840997 0 0 0
56 1 -32.541721565348084 7.143304733856898 -7.937005259840997 0 0 0
58 1 -33.31376707940953 7.143304733856898 -7.143304733856898 0 0 0
60 1 -31.76967605128665 7.143304733856898 -7.143304733856898 0 0 0
1527 4 -25.21476385180577 6.720873378187518 -6.643019655127953 0 0 0
1647 4 -21.717148832002575 7.48759653736669 -7.5138913380535035 0 0 0
1405 4 -19.759173099883558 6.9705366022036985 -7.572269978598358 0 0 0
2177 4 -19.07124507662542 7.415397711525673 -6.778419120487005 0 0 0
1574 4 -16.65147776979209 7.85185375252455 -6.759942607309095 0 0 0
620 2 0.0 7.143304733856898 -7.143304733856898 0 0 0
2527 4 6.512046258664162 6.732421484458887 -6.6513416558312555 0 0 0
2647 4 10.035656544617128 7.480670324185586 -7.51434063233552 0 0 0
2405 4 12.041614197009668 6.990291431994262 -7.536918854729947 0 0 0
2574 4 15.101936872286531 7.851071308937042 -6.765829683433879 0 0 0
2972 5 25.251438814106447 7.456133257701815 -7.557884277075009 0 0 0
2984 5 27.96781203771357 7.60903863762018 -7.237097722104899 0 0 0
858 3 31.76967605128665 7.143304733856898 -7.143304733856898 0 0 0
856 3 32.541721565348084 7.143304733856898 -7.937005259840997 0 0 0
860 3 33.31376707940953 7.143304733856898 -7.143304733856898 0 0 0
61 1 -33.31376707940953 -7.937005259840997 -6.3496042078727974 0 0 0
62 1 -32.541721565348084 -7.143304733856897 -6.3496042078727974 0 0 0
63 1 -32.541721565348084 -7.937005259840997 -5.555903681888698 0 0 0
64 1 -33.31376707940953 -7.143304733856898 -5.555903681888697 0 0 0
65 1 -31.76967605128665 -7.937005259840997 -6.3496042078727974 0 0 0
66 1 -31.76967605128665 -7.143304733856898 -5.555903681888697 0 0 0
1526 4 -27.919939538125703 -7.538581524634359 -6.390505991524755 0 0 0
1802 4 -26.66033611327439 -6.950062804223459 -5.617125037311304 0 0 0
1930 4 -26.01257446944446 -6.716629627023818 -6.49262111054568 0 0 0
2344 4 -17.723838404712993 -7.8337311843742405 -5.460053708128055 0 0 0
2257 4 -14.027705489448971 -7.769050330228273 -5.747502562352959 0 0 0
1472 4 -11.716380430724993 -6.941980902339821 -6.035345332449105 0 0 0
621 2 0.0 -7.937005259840997 -6.3496042078727974 0 0 0
622 2 0.0 -7.143304733856898 -5.555903681888697 0 0 0
2526 4 3.838397672210553 -7.540906913148955 -6.414103245452955 0 0 0
2802 4 5.101825638987368 -6.946303213452728 -5.633719298264469 0 0 0
2930 4 5.701281950810424 -6.72303524835068 -6.559201455208061 0 0 0
2472 4 20.03870492610247 -6.936050985197013 -6.05169173254669 0 0 0
2961 5 26.119522990361617 -7.243510567098215 -5.376460949924639 0 0 0
861 3 31.76967605128665 -7.937005259840997 -6.3496042078727974 0 0 0
864 3 31.76967605128665 -7.143304733856898 -5.555903681888697 0 0 0
862 3 32.541721565348084 -7.143304733856897 -6.3496042078727974 0 0 0
863 3 32.541721565348084 -7.937005259840997 -5.555903681888698 0 0 0
865 3 33.31376707940953 -7.937005259840997 -6.3496042078727974 0 0 0
866 3 33.31376707940953 -7.143304733856898 -5.555903681888697 0 0 0
67 1 -33.31376707940953 -6.3496042078727974 -6.3496042078727974 0 0 0
68 1 -32.541721565348084 -5.555903681888698 -6.3496042078727974 0 0 0
69 1 -32.541721565348084 -6.3496042078727974 -5.555903681888698 0 0 0
70 1 -33.31376707940953 -5.555903681888697 -5.555903681888697 0 0 0
71 1 -31.76967605128665 -6.3496042078727974 -6.3496042078727974 0 0 0
72 1 -31.76967605128665 -5.555903681888697 -5.555903681888697 0 0 0
1707 4 -24.112135558941116 -5.716578605046745 -5.566389290878132 0 0 0
1620 4 -21.96111904142465 -6.588211748086189 -6.090301078893664 0 0 0
1821 4 -21.24616284990751 -5.422110973532188 -5.358299706674004 0 0 0
2088 4 -21.98582026633133 -5.420634217072853 -6.190116225235032 0 0 0
1732 4 -17.40409732452118 -5.369418177208422 -5.1611511483985355 0 0 0
1762 4 -7.546399075783484 -6.166798918653993 -5.50672089405432 0 0 0
623 2 0.0 -6.3496042078727974 -6.3496042078727974 0 0 0
624 2 0.0 -5.555903681888697 -5.555903681888697 0 0 0
2707 4 7.637183972895639 -5.722301515528526 -5.565123635850326 0 0 0
2620 4 9.779881343041588 -6.421896776186991 -6.3767925464811475 0 0 0
2821 4 10.402685889370426 -5.417165910988216 -5.448397641217479 0 0 0
2732 4 14.328787609957832 -5.3633680081346276 -5.191574398097618 0 0 0
2762 4 24.224507937290088 -6.182507958173393 -5.5049553265519595 0 0 0
867 3 31.76967605128665 -6.3496042078727974 -6.3496042078727974 0 0 0
870 3 31.76967605128665 -5.555903681888697 -5.555903681888697 0 0 0
868 3 32.541721565348084 -5.555903681888698 -6.3496042078727974 0 0 0
869 3 32.541721565348084 -6.3496042078727974 -5.555903681888698 0 0 0
871 3 33.31376707940953 -6.3496042078727974 -6.3496042078727974 0 0 0
872 3 33.31376707940953 -5.555903681888697 -5.555903681888697 0 0 0
73 1 -33.31376707940953 -4.762203155904598 -6.3496042078727974 0 0 0
74 1 -32.541721565348084 -3.9685026299204984 -6.3496042078727974 0 0 0
75 1 -32.541721565348084 -4.762203155904598 -5.555903681888698 0 0 0
76 1 -33.31376707940953 -3.9685026299204984 -5.555903681888697 0 0 0
77 1 -31.76967605128665 -4.762203155904598 -6.3496042078727974 0 0 0
78 1 -31.76967605128665 -3.9685026299204984 -5.555903681888697 0 0 0
1582 4 -27.835120159306676 -3.940393698416412 -5.235472345153898 0 0 0
2296 4 -26.864390449215236 -4.49747001981635 -5.318023367362927 0 0 0
1931 4 -21.35081810458962 -4.243039902910957 -5.354893006543643 0 0 0
1911 4 -13.535487445211148 -4.518348907588982 -5.802571967650841 0 0 0
2158 4 -14.461663523321267 -3.9691267271396042 -6.028353413556 0 0 0
1492 4 -9.740683361538448 -4.660556811574664 -5.33153428582882 0 0 0
2227 4 -7.47329941037149 -4.168877706121418 -5.331093198049263 0 0 0
1557 4 -5.28301368577792 -5.021576262453842 -5.436369825450491 0 0 0
1682 4 -4.035967707733015 -4.12555786134197 -6.463119434752366 0 0 0
625 2 0.0 -4.762203155904598 -6.3496042078727974 0 0 0
626 2 0.0 -3.9685026299204984 -5.555903681888697 0 0 0
2582 4 3.8898945156837583 -4.109964286422337 -5.289118884601746 0 0 0
2931 4 10.39924034193922 -4.230695168221476 -5.352415134066488 0 0 0
2911 4 18.1268137632829 -4.471376894391485 -5.742486401701751 0 0 0
2492 4 22.01011898663699 -4.673223836228109 -5.342889587115422 0 0 0
2557 4 26.462042201331563 -5.048230776082115 -5.434863616430696 0 0 0
2682 4 27.717153221737632 -4.149711834752913 -6.453793732782908 0 0 0
873 3 31.76967605128665 -4.762203155904598 -6.3496042078727974 0 0 0
876 3 31.76967605128665 -3.9685026299204984 -5.555903681888697 0 0 0
874 3 32.541721565348084 -3.9685026299204984 -6.3496042078727974 0 0 0
875 3 32.541721565348084 -4.762203155904598 -5.555903681888698 0 0 0
877 3 33.31376707940953 -4.762203155904598 -6.3496042078727974 0 0 0
878 3 33.31376707940953 -3.9685026299204984 -5.555903681888697 0 0 0
79 1 -33.31376707940953 -3.1748021039363987 -6.3496042078727974 0 0 0
80 1 -32.541721565348084 -2.381101577952299 -6.3496042078727974 0 0 0
81 1 -32.541721565348084 -3.1748021039363987 -5.555903681888697 0 0 0
82 1 -33.31376707940953 -2.381101577952299 -5.555903681888697 0 0 0
83 1 -31.76967605128665 -3.1748021039363987 -6.3496042078727974 0 0 0
84 1 -31.76967605128665 -2.381101577952299 -5.555903681888697 0 0 0
1863 4 -26.43165696686622 -3.4186679917399627 -5.067604579919754 0 0 0
1511 4 -19.863832219218942 -2.272084193587579 -6.216212308562994 0 0 0
1697 4 -16.90046247956287 -3.191831812051125 -5.354157821847381 0 0 0
2134 4 -10.737149574539142 -3.2511285972173143 -6.318403839222884 0 0 0
1401 4 -10.063370146631446 -3.378860061127127 -5.417078372645119 0 0 0
1897 4 -7.375692034978551 -2.5392730336241356 -6.062861330684326 0 0 0
627 2 0.0 -3.1748021039363987 -6.3496042078727974 0 0 0
628 2 0.0 -2.381101577952299 -5.555903681888697 0 0 0
2863 4 4.745221319101963 -3.4641730001302213 -4.923108974696697 0 0 0
2511 4 11.89045679109077 -2.2763654519826626 -6.205575671555786 0 0 0
2697 4 14.834097347058037 -3.19232665817113 -5.339711142975464 0 0 0
2401 4 21.67425675582966 -3.3963577290812186 -5.417022368417652 0 0 0
2897 4 24.37065171888446 -2.5358022515379375 -6.06150431034808 0 0 0
879 3 31.76967605128665 -3.1748021039363987 -6.3496042078727974 0 0 0
882 3 31.76967605128665 -2.381101577952299 -5.555903681888697 0 0 0
880 3 32.541721565348084 -2.381101577952299 -6.3496042078727974 0 0 0
881 3 32.541721565348084 -3.1748021039363987 -5.555903681888697 0 0 0
883 3 33.31376707940953 -3.1748021039363987 -6.3496042078727974 0 0 0
884 3 33.31376707940953 -2.381101577952299 -5.555903681888697 0 0 0
85 1 -33.31376707940953 -1.5874010519681994 -6.3496042078727974 0 0 0
86 1 -32.541721565348084 -0.7937005259840997 -6.3496042078727974 0 0 0
87 1 -32.541721565348084 -1.5874010519681994 -5.555903681888697 0 0 0
88 1 -33.31376707940953 -0.7937005259840997 -5.555903681888697 0 0 0
89 1 -31.76967605128665 -1.5874010519681994 -6.3496042078727974 0 0 0
90 1 -31.76967605128665 -0.7937005259840997 -5.555903681888697 0 0 0
1455 4 -26.11779644875249 -1.0232219648887044 -5.089600149991393 0 0 0
2196 4 -25.093246954419634 -1.0020819794435365 -5.584603665250858 0 0 0
1933 4 -23.408162779961305 -1.1012398744943737 -4.993759940215305 0 0 0
1952 4 -10.403048859028784 -0.8469165920149916 -6.294970150206864 0 0 0
2117 4 -10.158055248398808 -1.8022402957811634 -5.514394153706311 0 0 0
1538 4 -7.422567274418788 -1.0257668137202556 -6.251733142585723 0 0 0
1685 4 -4.772845414682681 -0.9930432497088189 -6.038343090033895 0 0 0
629 2 0.0 -1.5874010519681994 -6.3496042078727974 0 0 0
630 2 0.0 -0.7937005259840997 -5.555903681888697 0 0 0
2455 4 6.290927649612572 -0.9261148415776428 -5.234853653853276 0 0 0
2933 4 8.341414002099283 -1.1056421110554362 -4.989905242545367 0 0 0
2538 4 24.29596368275961 -1.0361825409806373 -6.230362966011389 0 0 0
2685 4 27.03534482558059 -1.0101274454347777 -6.052196382280215 0 0 0
885 3 31.76967605128665 -1.5874010519681994 -6.3496042078727974 0 0 0
888 3 31.76967605128665 -0.7937005259840997 -5.555903681888697 0 0 0
886 3 32.541721565348084 -0.7937005259840997 -6.3496042078727974 0 0 0
887 3 32.541721565348084 -1.5874010519681994 -5.555903681888697 0 0 0
889 3 33.31376707940953 -1.5874010519681994 -6.3496042078727974 0 0 0
890 3 33.31376707940953 -0.7937005259840997 -5.555903681888697 0 0 0
91 1 -33.31376707940953 -1.2914815101989334e-18 -6.3496042078727974 0 0 0
93 1 -32.541721565348084 -4.9543158619960525e-19 -5.555903681888698 0 0 0
95 1 -31.76967605128665 -1.1832739834629256e-18 -6.3496042078727974 0 0 0
1822 4 -22.625089297342967 -0.36688029783372555 -5.338895350432472 0 0 0
1830 4 -22.37012178249099 0.17293580770970182 -6.265268525610616 0 0 0
2349 4 -22.121123680287607 -0.9090563896163983 -6.493201945143672 0 0 0
1769 4 -17.734335195045055 0.3796307514685057 -5.201563550541327 0 0 0
1801 4 -17.261589139189844 -0.5993752914580942 -5.7542931913403645 0 0 0
1530 4 -15.26362207862459 -0.09360472195896666 -5.892280653687802 0 0 0
2230 4 -10.251996017804936 -0.2882729299876446 -5.335206958858591 0 0 0
1471 4 -8.758569098685623 0.7754431644116073 -6.260954148735768 0 0 0
2107 4 -5.224585622034108 0.5035363463078605 -5.3654648410830825 0 0 0
631 2 0.0 0.0 -6.3496042078727974 0 0 0
2822 4 9.116651581692844 -0.3586352996087908 -5.3148161568475905 0 0 0
2830 4 9.44512436687865 -0.16046581758008494 -6.361940366676681 0 0 0
2769 4 14.012378585942672 0.3771846651123743 -5.2008158566360585 0 0 0
2801 4 14.486733351814141 -0.5992167528388478 -5.752372091632178 0 0 0
2530 4 16.483901416735126 -0.08921212280200362 -5.883728616197956 0 0 0