ITEM: TIMESTEP
0
ITEM: NUMBER OF ATOMS
3000
ITEM: BOX BOUNDS ss pp pp
-3.3342724136171235e+01 3.3342724136171235e+01
-7.9370052598409968e+00 7.9370052598409968e+00
-7.9370052598409968e+00 7.9370052598409968e+00
ITEM: ATOMS id type xs ys zs
1 1 0.0001095 0 0
2 1 0.0120117 0.05 0
3 1 0.0120117 0 0.05
4 1 0.0001095 0.05 0.05
5 1 0.0239138 0 0
6 1 0.0239138 0.05 0.05
2251 4 0.107148 0.0837167 0.0257768
2339 4 0.181613 0.0639044 0.0408832
2288 4 0.294625 0.0868708 0.0381977
601 2 0.5 0 0
602 2 0.5 0.05 0.05
2952 5 0.681131 0.0651529 0.0242714
801 3 0.976086 0 0
804 3 0.976086 0.05 0.05
802 3 0.987988 0.05 0
803 3 0.987988 0 0.05
805 3 0.999891 0 0
806 3 0.999891 0.05 0.05
7 1 0.0001095 0.1 0
8 1 0.0120117 0.15 0
9 1 0.0120117 0.1 0.05
10 1 0.0001095 0.15 0.05
11 1 0.0239138 0.1 0
12 1 0.0239138 0.15 0.05
1553 4 0.0794568 0.127749 0.0835912
2021 4 0.170328 0.107341 0.0798336
2282 4 0.182861 0.135662 0.0739457
1951 4 0.236387 0.148454 0.0643014
1852 4 0.291544 0.130307 0.0661521
1560 4 0.319191 0.132327 0.0210743
1770 4 0.3259 0.1644 0.0699268
2085 4 0.348175 0.131851 0.0212805
603 2 0.5 0.1 0
604 2 0.5 0.15 0.05
2553 4 0.555543 0.127749 0.0835912
2852 4 0.76763 0.130307 0.0661521
2560 4 0.795277 0.132327 0.0210743
2770 4 0.801986 0.1644 0.0699268
807 3 0.976086 0.1 0
810 3 0.976086 0.15 0.05
808 3 0.987988 0.15 0
809 3 0.987988 0.1 0.05
811 3 0.999891 0.1 0
812 3 0.999891 0.15 0.05
13 1 0.0001095 0.2 0
14 1 0.0120117 0.25 0
15 1 0.0120117 0.2 0.05
16 1 0.0001095 0.25 0.05
17 1 0.0239138 0.2 0
18 1 0.0239138 0.25 0.05
2096 4 0.0848305 0.259655 0.0226309
1572 4 0.102234 0.250908 0.0170883
1870 4 0.106064 0.264475 0.0356174
2231 4 0.089135 0.208783 0.0190564
1494 4 0.116555 0.213485 0.0503201
1958 4 0.142547 0.185283 0.0481286
1657 4 0.167861 0.211223 0.032534
2095 4 0.174206 0.208428 0.0410564
1816 4 0.263287 0.193015 0.00186745
605 2 0.5 0.2 0
606 2 0.5 0.25 0.05
2494 4 0.592642 0.213485 0.0503201
2572 4 0.57832 0.250908 0.0170883
2870 4 0.58215 0.264475 0.0356174
2657 4 0.643947 0.211223 0.032534
2816 4 0.739373 0.193015 0.00186745
813 3 0.976086 0.2 0
816 3 0.976086 0.25 0.05
814 3 0.987988 0.25 0
815 3 0.987988 0.2 0.05
817 3 0.999891 0.2 0
818 3 0.999891 0.25 0.05
19 1 0.0001095 0.3 0
20 1 0.0120117 0.35 0
21 1 0.0120117 0.3 0.05
22 1 0.0001095 0.35 0.05
23 1 0.0239138 0.3 0
24 1 0.0239138 0.35 0.05
1653 4 0.0975905 0.333614 0.0547054
1649 4 0.154719 0.320165 0.02128
2194 4 0.149735 0.355925 0.0335642
2142 4 0.231382 0.310407 0.0140772
2002 4 0.255653 0.309157 0.00490112
2006 4 0.256174 0.293216 0.0780794
2358 4 0.33984 0.338969 0.0499377
2074 4 0.364541 0.343196 0.0901106
1415 4 0.420944 0.309221 0.0856366
1900 4 0.439277 0.309578 0.0692872
1929 4 0.429149 0.353009 0.0285652
2205 4 0.426247 0.318202 0.0272247
2286 4 0.427765 0.307971 0.0671472
607 2 0.5 0.3 0
608 2 0.5 0.35 0.05
2653 4 0.573677 0.333614 0.0547054
2649 4 0.630806 0.320165 0.02128
2415 4 0.897031 0.309221 0.0856366
2929 4 0.905235 0.353009 0.0285652
2900 4 0.915364 0.309578 0.0692872
819 3 0.976086 0.3 0
822 3 0.976086 0.35 0.05
820 3 0.987988 0.35 0
821 3 0.987988 0.3 0.05
823 3 0.999891 0.3 0
824 3 0.999891 0.35 0.05
25 1 0.0001095 0.4 0
26 1 0.0120117 0.45 0
27 1 0.0120117 0.4 0.05
28 1 0.0001095 0.45 0.05
29 1 0.0239138 0.4 0
30 1 0.0239138 0.45 0.05
2046 4 0.171377 0.373479 0.0536249
2318 4 0.191976 0.394301 0.0251756
1991 4 0.271949 0.416556 0.0554158
1848 4 0.36366 0.440059 0.0781776
1896 4 0.367261 0.377645 0.0867397
2324 4 0.410726 0.409595 0.0711057
2112 4 0.447393 0.429286 0.0175432
609 2 0.5 0.4 0
610 2 0.5 0.45 0.05
2848 4 0.839746 0.440059 0.0781776
2896 4 0.843348 0.377645 0.0867397
2962 5 0.909428 0.389541 0.0184488
825 3 0.976086 0.4 0
828 3 0.976086 0.45 0.05
826 3 0.987988 0.45 0
827 3 0.987988 0.4 0.05
829 3 0.999891 0.4 0
830 3 0.999891 0.45 0.05
31 1 0.0001095 0.5 0
33 1 0.0120117 0.5 0.05
35 1 0.0239138 0.5 0
2201 4 0.0787851 0.489618 0.00448017
1638 4 0.0929028 0.475936 0.0600459
2137 4 0.124198 0.490931 0.0826522
1914 4 0.14353 0.53627 0.0896679
2165 4 0.238162 0.498722 0.0167455
2316 4 0.259714 0.541145 0.0211415
1921 4 0.315461 0.52294 0.0512936
2018 4 0.316275 0.464273 0.0342195
2091 4 0.354438 0.498903 0.0683017
1658 4 0.375989 0.515445 0.0772323
2262 4 0.378798 0.46927 0.0143235
1660 4 0.411817 0.537219 0.0447313
2377 4 0.406241 0.457731 0.0824812
1439 4 0.434229 0.523712 0.0258877
1452 4 0.428947 0.46612 0.0809019
1877 4 0.440574 0.510147 0.0384136
611 2 0.5 0.5 0
2638 4 0.568989 0.475936 0.0600459
2914 4 0.619616 0.53627 0.0896679
2921 4 0.791547 0.52294 0.0512936
2658 4 0.852075 0.515445 0.0772323
2660 4 0.887903 0.537219 0.0447313
2439 4 0.910315 0.523712 0.0258877
2452 4 0.905034 0.46612 0.0809019
2877 4 0.91666 0.510147 0.0384136
831 3 0.976086 0.5 0
833 3 0.987988 0.5 0.05
835 3 0.999891 0.5 0
32 1 0.0120117 0.55 0
34 1 0.0001095 0.55 0.05
37 1 0.0001095 0.6 0
39 1 0.0120117 0.6 0.05
36 1 0.0239138 0.55 0.05
41 1 0.0239138 0.6 0
2152 4 0.071695 0.613257 0.014172
1612 4 0.0965546 0.622601 0.0562271
1942 4 0.114773 0.555187 0.0336103
1961 4 0.115182 0.613971 0.00902991
2323 4 0.158827 0.564532 0.0859101
2212 4 0.173127 0.602251 0.0356415
1981 4 0.296562 0.548882 0.0633496
1999 4 0.281698 0.614567 0.0196136
1829 4 0.390041 0.5872 0.0658801
2119 4 0.395117 0.598863 0.0838098
2197 4 0.440711 0.576194 0.084172
612 2 0.5 0.55 0.05
613 2 0.5 0.6 0
2612 4 0.572641 0.622601 0.0562271
2942 4 0.590859 0.555187 0.0336103
2967 5 0.724902 0.612961 0.0334002
2829 4 0.866127 0.5872 0.0658801
834 3 0.976086 0.55 0.05
837 3 0.976086 0.6 0
832 3 0.987988 0.55 0
836 3 0.999891 0.55 0.05
839 3 0.987988 0.6 0.05
841 3 0.999891 0.6 0
38 1 0.0120117 0.65 0
40 1 0.0001095 0.65 0.05
43 1 0.0001095 0.7 0
45 1 0.0120117 0.7 0.05
42 1 0.0239138 0.65 0.05
47 1 0.0239138 0.7 0
2280 4 0.0958318 0.726429 0.0890943
1967 4 0.149515 0.644434 0.00146655
2300 4 0.157197 0.648839 0.0305925
1903 4 0.228717 0.699714 0.0865959
1654 4 0.236535 0.659492 0.0856181
1429 4 0.3035 0.714945 0.080255
1968 4 0.318433 0.663062 0.0900625
1417 4 0.355574 0.658714 0.0124587
1532 4 0.35494 0.678646 0.00299249
2026 4 0.380141 0.718634 0.0771677
2329 4 0.401011 0.677816 0.0538276
614 2 0.5 0.65 0.05
615 2 0.5 0.7 0
2654 4 0.712621 0.659492 0.0856181
2903 4 0.704803 0.699714 0.0865959
2429 4 0.779586 0.714945 0.080255
2417 4 0.831661 0.658714 0.0124587
2532 4 0.831027 0.678646 0.00299249
840 3 0.976086 0.65 0.05
843 3 0.976086 0.7 0
838 3 0.987988 0.65 0
842 3 0.999891 0.65 0.05
845 3 0.987988 0.7 0.05
847 3 0.999891 0.7 0
44 1 0.0120117 0.75 0
46 1 0.0001095 0.75 0.05
49 1 0.0001095 0.8 0
51 1 0.0120117 0.8 0.05
48 1 0.0239138 0.75 0.05
53 1 0.0239138 0.8 0
1839 4 0.112625 0.76153 0.0313705
1541 4 0.15226 0.792052 0.0123167
2075 4 0.257477 0.791399 0.0346755
1773 4 0.301733 0.754274 0.0789046
1468 4 0.332825 0.782179 0.075546
2278 4 0.37033 0.789792 0.0271665
616 2 0.5 0.75 0.05
617 2 0.5 0.8 0
2839 4 0.588711 0.76153 0.0313705
2541 4 0.628346 0.792052 0.0123167
2977 5 0.715139 0.789256 0.0176537
2773 4 0.777819 0.754274 0.0789046
2468 4 0.808911 0.782179 0.075546
846 3 0.976086 0.75 0.05
849 3 0.976086 0.8 0
844 3 0.987988 0.75 0
848 3 0.999891 0.75 0.05
851 3 0.987988 0.8 0.05
853 3 0.999891 0.8 0
50 1 0.0120117 0.85 0
52 1 0.0001095 0.85 0.05
55 1 0.0001095 0.9 0
57 1 0.0120117 0.9 0.05
54 1 0.0239138 0.85 0.05
59 1 0.0239138 0.9 0
1678 4 0.112605 0.884875 0.0891072
2128 4 0.142335 0.825196 0.0627186
1932 4 0.167467 0.827934 0.0836091
2009 4 0.317645 0.894628 0.0177568
1581 4 0.450281 0.892549 0.0772912
618 2 0.5 0.85 0.05
619 2 0.5 0.9 0
2678 4 0.588691 0.884875 0.0891072
2932 4 0.643553 0.827934 0.0836091
2581 4 0.926368 0.892549 0.0772912
852 3 0.976086 0.85 0.05
855 3 0.976086 0.9 0
850 3 0.987988 0.85 0
854 3 0.999891 0.85 0.05
857 3 0.987988 0.9 0.05
859 3 0.999891 0.9 0
56 1 0.0120117 0.95 0
58 1 0.0001095 0.95 0.05
60 1 0.0239138 0.95 0.05
1527 4 0.119177 0.912541 0.0838208
1647 4 0.173928 0.971383 0.0278005
1405 4 0.204656 0.940979 0.0284362
2177 4 0.213268 0.965138 0.0696851
1574 4 0.250388 0.99453 0.0736815
620 2 0.5 0.95 0.05
2527 4 0.595263 0.912541 0.0838208
2647 4 0.650015 0.971383 0.0278005
2405 4 0.680743 0.940979 0.0284362
2574 4 0.726474 0.99453 0.0736815
2972 5 0.879891 0.991374 0.0160086
2984 5 0.920409 0.95395 0.0410149
858 3 0.976086 0.95 0.05
856 3 0.987988 0.95 0
860 3 0.999891 0.95 0.05
61 1 0.0001095 0 0.1
62 1 0.0120117 0.05 0.1
63 1 0.0120117 0 0.15
64 1 0.0001095 0.05 0.15
65 1 0.0239138 0 0.1
66 1 0.0239138 0.05 0.15
1526 4 0.0807688 0.0255308 0.0965744
1802 4 0.102049 0.0669445 0.135867
1930 4 0.108032 0.0755101 0.0977738
2344 4 0.235024 0.0132778 0.159982
2257 4 0.289615 0.0101825 0.137737
1472 4 0.324379 0.0626595 0.118869
621 2 0.5 0 0.1
622 2 0.5 0.05 0.15
2526 4 0.556855 0.0255308 0.0965744
2802 4 0.578135 0.0669445 0.135867
2930 4 0.584118 0.0755101 0.0977738
2472 4 0.800465 0.0626595 0.118869
2961 5 0.891472 0.0321394 0.166654
861 3 0.976086 0 0.1
864 3 0.976086 0.05 0.15
862 3 0.987988 0.05 0.1
863 3 0.987988 0 0.15
865 3 0.999891 0 0.1
866 3 0.999891 0.05 0.15
67 1 0.0001095 0.1 0.1
68 1 0.0120117 0.15 0.1
69 1 0.0120117 0.1 0.15
70 1 0.0001095 0.15 0.15
71 1 0.0239138 0.1 0.1
72 1 0.0239138 0.15 0.15
1707 4 0.138444 0.139534 0.149486
1620 4 0.170215 0.0949663 0.0980307
1821 4 0.180028 0.157146 0.157328
2088 4 0.17153 0.156906 0.11612
1732 4 0.238563 0.162681 0.173829
1762 4 0.38688 0.111689 0.152765
623 2 0.5 0.1 0.1
624 2 0.5 0.15 0.15
2707 4 0.614531 0.139534 0.149486
2620 4 0.646301 0.0949663 0.0980307
2821 4 0.656115 0.157146 0.157328
2732 4 0.714649 0.162681 0.173829
2762 4 0.862966 0.111689 0.152765
867 3 0.976086 0.1 0.1
870 3 0.976086 0.15 0.15
868 3 0.987988 0.15 0.1
869 3 0.987988 0.1 0.15
871 3 0.999891 0.1 0.1
872 3 0.999891 0.15 0.15
73 1 0.0001095 0.2 0.1
74 1 0.0120117 0.25 0.1
75 1 0.0120117 0.2 0.15
76 1 0.0001095 0.25 0.15
77 1 0.0239138 0.2 0.1
78 1 0.0239138 0.25 0.15
1582 4 0.084241 0.246455 0.169316
2296 4 0.0948912 0.219561 0.165037
1931 4 0.179872 0.235685 0.162864
1911 4 0.295512 0.21831 0.138949
2158 4 0.286561 0.242585 0.123391
1492 4 0.354091 0.203853 0.163547
2227 4 0.387971 0.237113 0.164272
1557 4 0.420738 0.183385 0.157764
1682 4 0.439752 0.236217 0.0941051
625 2 0.5 0.2 0.1
626 2 0.5 0.25 0.15
2582 4 0.560327 0.246455 0.169316
2931 4 0.655958 0.235685 0.162864
2911 4 0.771598 0.21831 0.138949
2492 4 0.830177 0.203853 0.163547
2557 4 0.896824 0.183385 0.157764
2682 4 0.915838 0.236217 0.0941051
873 3 0.976086 0.2 0.1
876 3 0.976086 0.25 0.15
874 3 0.987988 0.25 0.1
875 3 0.987988 0.2 0.15
877 3 0.999891 0.2 0.1
878 3 0.999891 0.25 0.15
79 1 0.0001095 0.3 0.1
80 1 0.0120117 0.35 0.1
81 1 0.0120117 0.3 0.15
82 1 0.0001095 0.35 0.15
83 1 0.0239138 0.3 0.1
84 1 0.0239138 0.35 0.15
1863 4 0.103617 0.28751 0.180771
1511 4 0.202218 0.356584 0.109043
1697 4 0.24652 0.299171 0.162934
2134 4 0.338729 0.296192 0.0996689
1401 4 0.348813 0.287747 0.158695
1897 4 0.389514 0.339032 0.118503
627 2 0.5 0.3 0.1
628 2 0.5 0.35 0.15
2863 4 0.579704 0.28751 0.180771
2511 4 0.678305 0.356584 0.109043
2697 4 0.722606 0.299171 0.162934
2401 4 0.824899 0.287747 0.158695
2897 4 0.8656 0.339032 0.118503
879 3 0.976086 0.3 0.1
882 3 0.976086 0.35 0.15
880 3 0.987988 0.35 0.1
881 3 0.987988 0.3 0.15
883 3 0.999891 0.3 0.1
884 3 0.999891 0.35 0.15
85 1 0.0001095 0.4 0.1
86 1 0.0120117 0.45 0.1
87 1 0.0120117 0.4 0.15
88 1 0.0001095 0.45 0.15
89 1 0.0239138 0.4 0.1
90 1 0.0239138 0.45 0.15
1455 4 0.112391 0.436436 0.173607
2196 4 0.120254 0.435899 0.156362
1933 4 0.154314 0.451727 0.176406
1952 4 0.343423 0.451069 0.110295
2117 4 0.347184 0.386931 0.156713
1538 4 0.38861 0.434825 0.108089
1685 4 0.428902 0.450533 0.102019
629 2 0.5 0.4 0.1
630 2 0.5 0.45 0.15
2455 4 0.588477 0.436436 0.173607
2933 4 0.630401 0.451727 0.176406
2538 4 0.864696 0.434825 0.108089
2685 4 0.904988 0.450533 0.102019
885 3 0.976086 0.4 0.1
888 3 0.976086 0.45 0.15
886 3 0.987988 0.45 0.1
887 3 0.987988 0.4 0.15
889 3 0.999891 0.4 0.1
890 3 0.999891 0.45 0.15
91 1 0.0001095 0.5 0.1
93 1 0.0120117 0.5 0.15
95 1 0.0239138 0.5 0.1
1822 4 0.155289 0.455654 0.17473
1830 4 0.165714 0.489623 0.0987097
2349 4 0.166869 0.470107 0.0953314
1769 4 0.233835 0.524613 0.173896
1801 4 0.241334 0.460352 0.136496
1530 4 0.271135 0.494445 0.129298
2230 4 0.345418 0.475645 0.158806
1471 4 0.371208 0.536925 0.0963684
2107 4 0.421471 0.53211 0.165958
631 2 0.5 0.5 0.1
2822 4 0.631375 0.455654 0.17473
2830 4 0.6418 0.489623 0.0987097
2769 4 0.709921 0.524613 0.173896
2801 4 0.71742 0.460352 0.136496
2530 4 0.747221 0.494445 0.129298
2471 4 0.847294 0.536925 0.0963684
891 3 0.976086 0.5 0.1
893 3 0.987988 0.5 0.15
895 3 0.999891 0.5 0.1
92 1 0.0120117 0.55 0.1
94 1 0.0001095 0.55 0.15
97 1 0.0001095 0.6 0.1
99 1 0.0120117 0.6 0.15
96 1 0.0239138 0.55 0.15
101 1 0.0239138 0.6 0.1
1869 4 0.0911155 0.602256 0.123406
2081 4 0.0867648 0.617607 0.121352
2220 4 0.141945 0.595295 0.122903
1923 4 0.18099 0.591071 0.127004
2238 4 0.178543 0.599165 0.16652
1435 4 0.22432 0.635754 0.124987
1859 4 0.232205 0.618797 0.119267
2379 4 0.386642 0.598269 0.101205
2147 4 0.439148 0.604757 0.150141
632 2 0.5 0.55 0.15
633 2 0.5 0.6 0.1
2869 4 0.567202 0.602256 0.123406
2923 4 0.657076 0.591071 0.127004
2435 4 0.700406 0.635754 0.124987
2859 4 0.708291 0.618797 0.119267
894 3 0.976086 0.55 0.15
897 3 0.976086 0.6 0.1
892 3 0.987988 0.55 0.1
896 3 0.999891 0.55 0.15
899 3 0.987988 0.6 0.15
901 3 0.999891 0.6 0.1
98 1 0.0120117 0.65 0.1
100 1 0.0001095 0.65 0.15
103 1 0.0001095 0.7 0.1
105 1 0.0120117 0.7 0.15
102 1 0.0239138 0.65 0.15
107 1 0.0239138 0.7 0.1
2368 4 0.071696 0.660505 0.107799
1840 4 0.164381 0.674967 0.17077
1584 4 0.179021 0.714592 0.145864
2039 4 0.192367 0.654138 0.0970304
1956 4 0.217772 0.717029 0.114089
2261 4 0.24161 0.638316 0.170989
2192 4 0.348618 0.669787 0.112508
1443 4 0.407424 0.691389 0.172816
634 2 0.5 0.65 0.15
635 2 0.5 0.7 0.1
2584 4 0.655107 0.714592 0.145864
2840 4 0.640467 0.674967 0.17077
2443 4 0.883511 0.691389 0.172816
900 3 0.976086 0.65 0.15
903 3 0.976086 0.7 0.1
898 3 0.987988 0.65 0.1
902 3 0.999891 0.65 0.15
905 3 0.987988 0.7 0.15
907 3 0.999891 0.7 0.1
104 1 0.0120117 0.75 0.1
106 1 0.0001095 0.75 0.15
109 1 0.0001095 0.8 0.1
111 1 0.0120117 0.8 0.15
108 1 0.0239138 0.75 0.15
113 1 0.0239138 0.8 0.1
1426 4 0.100796 0.782004 0.144993
2122 4 0.130232 0.738214 0.165782
2204 4 0.131434 0.786762 0.102156
1635 4 0.152623 0.811933 0.157783
1708 4 0.228469 0.744338 0.0961397
2003 4 0.213604 0.770163 0.130449
1879 4 0.263618 0.797059 0.172232
636 2 0.5 0.75 0.15
637 2 0.5 0.8 0.1
2426 4 0.576882 0.782004 0.144993
2635 4 0.628709 0.811933 0.157783
2708 4 0.704555 0.744338 0.0961397
2879 4 0.739704 0.797059 0.172232
906 3 0.976086 0.75 0.15
909 3 0.976086 0.8 0.1
904 3 0.987988 0.75 0.1
908 3 0.999891 0.75 0.15
911 3 0.987988 0.8 0.15
913 3 0.999891 0.8 0.1
110 1 0.0120117 0.85 0.1
112 1 0.0001095 0.85 0.15
115 1 0.0001095 0.9 0.1
117 1 0.0120117 0.9 0.15
114 1 0.0239138 0.85 0.15
119 1 0.0239138 0.9 0.1
1428 4 0.0776612 0.892851 0.151878
2399 4 0.140796 0.89267 0.112374
2264 4 0.290383 0.89862 0.101144
638 2 0.5 0.85 0.15
639 2 0.5 0.9 0.1
2428 4 0.553747 0.892851 0.151878
912 3 0.976086 0.85 0.15
915 3 0.976086 0.9 0.1
910 3 0.987988 0.85 0.1
914 3 0.999891 0.85 0.15
917 3 0.987988 0.9 0.15
919 3 0.999891 0.9 0.1
116 1 0.0120117 0.95 0.1
118 1 0.0001095 0.95 0.15
120 1 0.0239138 0.95 0.15
1885 4 0.0996673 0.977041 0.124151
1922 4 0.106647 0.981682 0.129784
1846 4 0.374231 0.922362 0.142715
2065 4 0.392314 0.922302 0.135939
640 2 0.5 0.95 0.15
2885 4 0.575753 0.977041 0.124151
2922 4 0.582733 0.981682 0.129784
2846 4 0.850317 0.922362 0.142715
918 3 0.976086 0.95 0.15
916 3 0.987988 0.95 0.1
920 3 0.999891 0.95 0.15
121 1 0.0001095 0 0.2
122 1 0.0120117 0.05 0.2
123 1 0.0120117 0 0.25
124 1 0.0001095 0.05 0.25
125 1 0.0239138 0 0.2
126 1 0.0239138 0.05 0.25
1690 4 0.240192 0.0570705 0.183287
2061 4 0.316061 0.0253585 0.200207
2064 4 0.308471 0.0871205 0.234298
1512 4 0.331494 0.051061 0.181957
1936 4 0.35513 0.0408867 0.18349
1592 4 0.373237 0.052432 0.225058
2243 4 0.403851 0.0245861 0.21799
641 2 0.5 0 0.2
642 2 0.5 0.05 0.25
2690 4 0.716278 0.0570705 0.183287
2512 4 0.807581 0.051061 0.181957
2592 4 0.849323 0.052432 0.225058
2936 4 0.831216 0.0408867 0.18349
921 3 0.976086 0 0.2
924 3 0.976086 0.05 0.25
922 3 0.987988 0.05 0.2
923 3 0.987988 0 0.25
925 3 0.999891 0 0.2
926 3 0.999891 0.05 0.25
127 1 0.0001095 0.1 0.2
128 1 0.0120117 0.15 0.2
129 1 0.0120117 0.1 0.25
130 1 0.0001095 0.15 0.25
131 1 0.0239138 0.1 0.2
132 1 0.0239138 0.15 0.25
1629 4 0.105246 0.149655 0.254542
2098 4 0.230426 0.0924748 0.224279
1662 4 0.267048 0.169168 0.204818
2028 4 0.260658 0.177735 0.184037
1781 4 0.284201 0.0917593 0.199336
2082 4 0.28384 0.165779 0.244252
643 2 0.5 0.1 0.2
644 2 0.5 0.15 0.25
2629 4 0.581332 0.149655 0.254542
2662 4 0.743134 0.169168 0.204818
2781 4 0.760287 0.0917593 0.199336
927 3 0.976086 0.1 0.2
930 3 0.976086 0.15 0.25
928 3 0.987988 0.15 0.2
929 3 0.987988 0.1 0.25
931 3 0.999891 0.1 0.2
932 3 0.999891 0.15 0.25
133 1 0.0001095 0.2 0.2
134 1 0.0120117 0.25 0.2
135 1 0.0120117 0.2 0.25
136 1 0.0001095 0.25 0.25
137 1 0.0239138 0.2 0.2
138 1 0.0239138 0.25 0.25
2170 4 0.119909 0.19392 0.209348
1979 4 0.154309 0.190412 0.261198
1905 4 0.229909 0.267284 0.236662
1971 4 0.271423 0.224324 0.208611
1589 4 0.285563 0.200701 0.18899
1683 4 0.309267 0.220279 0.230607
2126 4 0.305822 0.194395 0.188887
2387 4 0.307705 0.256872 0.254346
2239 4 0.339158 0.23444 0.239418
645 2 0.5 0.2 0.2
646 2 0.5 0.25 0.25
2990 5 0.699398 0.189342 0.265393
2905 4 0.705995 0.267284 0.236662
2589 4 0.761649 0.200701 0.18899
2683 4 0.785354 0.220279 0.230607
933 3 0.976086 0.2 0.2
936 3 0.976086 0.25 0.25
934 3 0.987988 0.25 0.2
935 3 0.987988 0.2 0.25
937 3 0.999891 0.2 0.2
938 3 0.999891 0.25 0.25
139 1 0.0001095 0.3 0.2
140 1 0.0120117 0.35 0.2
141 1 0.0120117 0.3 0.25
142 1 0.0001095 0.35 0.25
143 1 0.0239138 0.3 0.2
144 1 0.0239138 0.35 0.25
1714 4 0.0883451 0.35332 0.246546
1578 4 0.120613 0.288523 0.207757
1597 4 0.10738 0.337254 0.233543
1752 4 0.162516 0.356534 0.271293
1576 4 0.377164 0.36284 0.251571
1984 4 0.364608 0.280432 0.222001
1614 4 0.445622 0.292929 0.255925
647 2 0.5 0.3 0.2
648 2 0.5 0.35 0.25
2714 4 0.564431 0.35332 0.246546
2597 4 0.583466 0.337254 0.233543
2965 5 0.586978 0.297566 0.185087
2578 4 0.5967 0.288523 0.207757
2752 4 0.638602 0.356534 0.271293
2576 4 0.85325 0.36284 0.251571
2614 4 0.921708 0.292929 0.255925
939 3 0.976086 0.3 0.2
942 3 0.976086 0.35 0.25
940 3 0.987988 0.35 0.2
941 3 0.987988 0.3 0.25
943 3 0.999891 0.3 0.2
944 3 0.999891 0.35 0.25
145 1 0.0001095 0.4 0.2
146 1 0.0120117 0.45 0.2
147 1 0.0120117 0.4 0.25
148 1 0.0001095 0.45 0.25
149 1 0.0239138 0.4 0.2
150 1 0.0239138 0.45 0.25
1542 4 0.0740921 0.39491 0.256369
1645 4 0.122226 0.438226 0.265136
2304 4 0.121682 0.445067 0.235705
1480 4 0.21244 0.426801 0.252742
1438 4 0.243917 0.433764 0.271551
2099 4 0.242669 0.376524 0.241085
1585 4 0.272583 0.410618 0.254447
2120 4 0.296537 0.447626 0.249642
1410 4 0.30261 0.431439 0.20028
2174 4 0.338074 0.392291 0.238153
2360 4 0.322824 0.435787 0.267499
2274 4 0.347887 0.440305 0.214054
1938 4 0.376237 0.440187 0.228786
2185 4 0.362096 0.420193 0.188313
1884 4 0.438372 0.366411 0.263764
649 2 0.5 0.4 0.2
650 2 0.5 0.45 0.25
2542 4 0.550178 0.39491 0.256369
2963 5 0.574018 0.384137 0.192807
2645 4 0.598312 0.438226 0.265136
2480 4 0.688526 0.426801 0.252742
2438 4 0.720003 0.433764 0.271551
2585 4 0.748669 0.410618 0.254447
2410 4 0.778696 0.431439 0.20028
2938 4 0.852323 0.440187 0.228786
2884 4 0.914459 0.366411 0.263764
2980 5 0.927172 0.387231 0.198648
945 3 0.976086 0.4 0.2
948 3 0.976086 0.45 0.25
946 3 0.987988 0.45 0.2
947 3 0.987988 0.4 0.25
949 3 0.999891 0.4 0.2
950 3 0.999891 0.45 0.25
151 1 0.0001095 0.5 0.2
153 1 0.0120117 0.5 0.25
155 1 0.0239138 0.5 0.2
2094 4 0.322372 0.49808 0.226053
2121 4 0.352012 0.461071 0.221881
1862 4 0.413742 0.45792 0.258766
1937 4 0.419431 0.535148 0.227155
1959 4 0.413425 0.470946 0.185308
651 2 0.5 0.5 0.2
2862 4 0.889828 0.45792 0.258766
2937 4 0.895517 0.535148 0.227155
951 3 0.976086 0.5 0.2
953 3 0.987988 0.5 0.25
955 3 0.999891 0.5 0.2
152 1 0.0120117 0.55 0.2
154 1 0.0001095 0.55 0.25
157 1 0.0001095 0.6 0.2
159 1 0.0120117 0.6 0.25
156 1 0.0239138 0.55 0.25
161 1 0.0239138 0.6 0.2
1836 4 0.1339 0.615768 0.212922
1498 4 0.382065 0.626538 0.226919
1479 4 0.403887 0.580844 0.244087
2154 4 0.424849 0.591315 0.230628
1824 4 0.441075 0.632428 0.222664
652 2 0.5 0.55 0.25
653 2 0.5 0.6 0.2
2836 4 0.609987 0.615768 0.212922
2498 4 0.858151 0.626538 0.226919
2479 4 0.879973 0.580844 0.244087
2824 4 0.917161 0.632428 0.222664
954 3 0.976086 0.55 0.25
957 3 0.976086 0.6 0.2
952 3 0.987988 0.55 0.2
956 3 0.999891 0.55 0.25
959 3 0.987988 0.6 0.25
961 3 0.999891 0.6 0.2
158 1 0.0120117 0.65 0.2
160 1 0.0001095 0.65 0.25
163 1 0.0001095 0.7 0.2
165 1 0.0120117 0.7 0.25
162 1 0.0239138 0.65 0.25
167 1 0.0239138 0.7 0.2
1545 4 0.111852 0.667416 0.254891
1941 4 0.139612 0.660335 0.251926
2187 4 0.140881 0.650337 0.219058
2334 4 0.128803 0.672235 0.253634
2389 4 0.143148 0.67604 0.205738
1771 4 0.170682 0.700732 0.205072
2007 4 0.178387 0.710489 0.18385
2123 4 0.1831 0.708351 0.261175
1787 4 0.224546 0.64903 0.254196
1756 4 0.235947 0.72364 0.220264
1739 4 0.321197 0.664975 0.239715
1976 4 0.337038 0.695913 0.215338
1564 4 0.349843 0.722153 0.217127
2277 4 0.345106 0.703825 0.190682
2208 4 0.375994 0.715072 0.211594
1826 4 0.446697 0.708768 0.262332
1894 4 0.426188 0.686453 0.209819
654 2 0.5 0.65 0.25
655 2 0.5 0.7 0.2
2545 4 0.587938 0.667416 0.254891
2941 4 0.615698 0.660335 0.251926
2771 4 0.646768 0.700732 0.205072
2787 4 0.700633 0.64903 0.254196
2756 4 0.712033 0.72364 0.220264
2739 4 0.797284 0.664975 0.239715
2564 4 0.825929 0.722153 0.217127
2894 4 0.902274 0.686453 0.209819
2826 4 0.922783 0.708768 0.262332
960 3 0.976086 0.65 0.25
963 3 0.976086 0.7 0.2
958 3 0.987988 0.65 0.2
962 3 0.999891 0.65 0.25
965 3 0.987988 0.7 0.25
967 3 0.999891 0.7 0.2
164 1 0.0120117 0.75 0.2
166 1 0.0001095 0.75 0.25
169 1 0.0001095 0.8 0.2
171 1 0.0120117 0.8 0.25
168 1 0.0239138 0.75 0.25
173 1 0.0239138 0.8 0.2
2045 4 0.08652 0.814494 0.198564
1778 4 0.318844 0.804978 0.259868
1454 4 0.381797 0.791706 0.203672
1517 4 0.366636 0.779809 0.251309
1684 4 0.37774 0.763267 0.222225
1759 4 0.383021 0.815208 0.196928
1406 4 0.424966 0.765883 0.201552
1909 4 0.447944 0.731493 0.211152
656 2 0.5 0.75 0.25
657 2 0.5 0.8 0.2
2778 4 0.79493 0.804978 0.259868
2517 4 0.842722 0.779809 0.251309
2454 4 0.857883 0.791706 0.203672
2684 4 0.853826 0.763267 0.222225
2759 4 0.859107 0.815208 0.196928
2406 4 0.901052 0.765883 0.201552
2909 4 0.92403 0.731493 0.211152
966 3 0.976086 0.75 0.25
969 3 0.976086 0.8 0.2
964 3 0.987988 0.75 0.2
968 3 0.999891 0.75 0.25
971 3 0.987988 0.8 0.25
973 3 0.999891 0.8 0.2
170 1 0.0120117 0.85 0.2
172 1 0.0001095 0.85 0.25
175 1 0.0001095 0.9 0.2
177 1 0.0120117 0.9 0.25
174 1 0.0239138 0.85 0.25
179 1 0.0239138 0.9 0.2
1537 4 0.0812644 0.894762 0.269521
1988 4 0.261126 0.854955 0.231084
1520 4 0.345698 0.834014 0.270853
1693 4 0.428434 0.825326 0.255112
1980 4 0.432084 0.86394 0.24059
2176 4 0.43614 0.862866 0.193037
658 2 0.5 0.85 0.25
659 2 0.5 0.9 0.2
2537 4 0.557351 0.894762 0.269521
2520 4 0.821784 0.834014 0.270853
2693 4 0.904521 0.825326 0.255112
2953 5 0.901439 0.841033 0.244683
972 3 0.976086 0.85 0.25
975 3 0.976086 0.9 0.2
970 3 0.987988 0.85 0.2
974 3 0.999891 0.85 0.25
977 3 0.987988 0.9 0.25
979 3 0.999891 0.9 0.2
176 1 0.0120117 0.95 0.2
178 1 0.0001095 0.95 0.25
180 1 0.0239138 0.95 0.25
1448 4 0.16978 0.931232 0.223068
1671 4 0.165905 0.916713 0.20132
2247 4 0.31896 0.95206 0.27008
1475 4 0.346312 0.93367 0.199918
1495 4 0.34978 0.975621 0.266521
1419 4 0.415521 0.980618 0.251759
660 2 0.5 0.95 0.25
2448 4 0.645867 0.931232 0.223068
2671 4 0.641991 0.916713 0.20132
2475 4 0.822398 0.93367 0.199918
2495 4 0.825867 0.975621 0.266521
2419 4 0.891607 0.980618 0.251759
978 3 0.976086 0.95 0.25
976 3 0.987988 0.95 0.2
980 3 0.999891 0.95 0.25
181 1 0.0001095 0 0.3
182 1 0.0120117 0.05 0.3
183 1 0.0120117 0 0.35
184 1 0.0001095 0.05 0.35
185 1 0.0239138 0 0.3
186 1 0.0239138 0.05 0.35
1476 4 0.079228 0.0299486 0.346271
2051 4 0.095 0.0202483 0.312747
2301 4 0.135474 0.0469646 0.334318
1888 4 0.169782 0.0147163 0.336654
2313 4 0.194552 0.0673139 0.345308
2101 4 0.334575 0.00900248 0.304653
2216 4 0.336864 0.0169146 0.283746
1489 4 0.430389 0.0867697 0.339171
1655 4 0.446001 0.00722049 0.354719
2199 4 0.434331 0.0441054 0.279252
661 2 0.5 0 0.3
662 2 0.5 0.05 0.35
2476 4 0.555314 0.0299486 0.346271
2888 4 0.645868 0.0147163 0.336654
2489 4 0.906475 0.0867697 0.339171
2655 4 0.922087 0.00722049 0.354719
981 3 0.976086 0 0.3
984 3 0.976086 0.05 0.35
982 3 0.987988 0.05 0.3
983 3 0.987988 0 0.35
985 3 0.999891 0 0.3
986 3 0.999891 0.05 0.35
187 1 0.0001095 0.1 0.3
188 1 0.0120117 0.15 0.3
189 1 0.0120117 0.1 0.35
190 1 0.0001095 0.15 0.35
191 1 0.0239138 0.1 0.3
192 1 0.0239138 0.15 0.35
2320 4 0.101528 0.0921836 0.329581
2295 4 0.14513 0.155611 0.357295
2356 4 0.198519 0.114612 0.290069
2032 4 0.237361 0.14115 0.3059
1729 4 0.270356 0.134844 0.327969
1964 4 0.256601 0.145194 0.27679
1990 4 0.293744 0.181074 0.303417
2017 4 0.334737 0.131335 0.347988
2338 4 0.36508 0.100273 0.282162
1437 4 0.401157 0.107178 0.346787
1546 4 0.43558 0.142817 0.328457
663 2 0.5 0.1 0.3
664 2 0.5 0.15 0.35
2729 4 0.746442 0.134844 0.327969
2966 5 0.835139 0.164119 0.352262
2437 4 0.877243 0.107178 0.346787
2546 4 0.911666 0.142817 0.328457
987 3 0.976086 0.1 0.3
990 3 0.976086 0.15 0.35
988 3 0.987988 0.15 0.3
989 3 0.987988 0.1 0.35
991 3 0.999891 0.1 0.3
992 3 0.999891 0.15 0.35
193 1 0.0001095 0.2 0.3
194 1 0.0120117 0.25 0.3
195 1 0.0120117 0.2 0.35
196 1 0.0001095 0.25 0.35
197 1 0.0239138 0.2 0.3
198 1 0.0239138 0.25 0.35
2155 4 0.134254 0.208384 0.31592
2033 4 0.167951 0.183215 0.301546
2139 4 0.185174 0.237536 0.273527
1605 4 0.247108 0.233911 0.349922
2385 4 0.244455 0.195709 0.280106
1621 4 0.300748 0.267288 0.305221
665 2 0.5 0.2 0.3
666 2 0.5 0.25 0.35
2605 4 0.723194 0.233911 0.349922
2621 4 0.776834 0.267288 0.305221
993 3 0.976086 0.2 0.3
996 3 0.976086 0.25 0.35
994 3 0.987988 0.25 0.3
995 3 0.987988 0.2 0.35
997 3 0.999891 0.2 0.3
998 3 0.999891 0.25 0.35
199 1 0.0001095 0.3 0.3
200 1 0.0120117 0.35 0.3
201 1 0.0120117 0.3 0.35
202 1 0.0001095 0.35 0.35
203 1 0.0239138 0.3 0.3
204 1 0.0239138 0.35 0.35
1411 4 0.114971 0.297931 0.318292
1743 4 0.115311 0.321014 0.284908
1513 4 0.129112 0.309472 0.297953
1580 4 0.174321 0.283351 0.272862
1456 4 0.380177 0.315424 0.337469
667 2 0.5 0.3 0.3
668 2 0.5 0.35 0.35
2411 4 0.591057 0.297931 0.318292
2743 4 0.591398 0.321014 0.284908
2993 5 0.580135 0.330835 0.346863
2513 4 0.605198 0.309472 0.297953
2580 4 0.650407 0.283351 0.272862
2982 5 0.658204 0.361716 0.354646
2456 4 0.856263 0.315424 0.337469
999 3 0.976086 0.3 0.3
1002 3 0.976086 0.35 0.35
1000 3 0.987988 0.35 0.3
1001 3 0.987988 0.3 0.35
1003 3 0.999891 0.3 0.3
1004 3 0.999891 0.35 0.35
205 1 0.0001095 0.4 0.3
206 1 0.0120117 0.45 0.3
207 1 0.0120117 0.4 0.35
208 1 0.0001095 0.45 0.35
209 1 0.0239138 0.4 0.3
210 1 0.0239138 0.45 0.35
2019 4 0.119642 0.411219 0.359307
1503 4 0.151593 0.365522 0.320384
2093 4 0.223566 0.36582 0.329902
2060 4 0.327968 0.446499 0.302769
1543 4 0.373766 0.414966 0.334133
2020 4 0.406397 0.369808 0.363138
669 2 0.5 0.4 0.3
670 2 0.5 0.45 0.35
2503 4 0.627679 0.365522 0.320384
2543 4 0.849852 0.414966 0.334133
1005 3 0.976086 0.4 0.3
1008 3 0.976086 0.45 0.35
1006 3 0.987988 0.45 0.3
1007 3 0.987988 0.4 0.35
1009 3 0.999891 0.4 0.3
1010 3 0.999891 0.45 0.35
211 1 0.0001095 0.5 0.3
213 1 0.0120117 0.5 0.35
215 1 0.0239138 0.5 0.3
1705 4 0.0898444 0.514565 0.301603
2246 4 0.104256 0.474343 0.287062
1556 4 0.115611 0.526588 0.362523
1648 4 0.164355 0.507484 0.284299
1547 4 0.216747 0.4631 0.317052
1558 4 0.273991 0.529622 0.357305
1634 4 0.26658 0.49273 0.31155
1593 4 0.27927 0.503558 0.294874
1955 4 0.307847 0.529261 0.293888
1858 4 0.349973 0.472796 0.290023
1760 4 0.363842 0.469171 0.352723
1474 4 0.43076 0.463635 0.317768
671 2 0.5 0.5 0.3
2705 4 0.565931 0.514565 0.301603
2556 4 0.591697 0.526588 0.362523
2648 4 0.640441 0.507484 0.284299
2547 4 0.692833 0.4631 0.317052
2954 5 0.692516 0.465482 0.352202
2634 4 0.742666 0.49273 0.31155
2558 4 0.750077 0.529622 0.357305
2593 4 0.755356 0.503558 0.294874
2858 4 0.826059 0.472796 0.290023
2760 4 0.839928 0.469171 0.352723
3000 5 0.859304 0.484281 0.316409
2474 4 0.906847 0.463635 0.317768
1011 3 0.976086 0.5 0.3
1013 3 0.987988 0.5 0.35
1015 3 0.999891 0.5 0.3
212 1 0.0120117 0.55 0.3
214 1 0.0001095 0.55 0.35
217 1 0.0001095 0.6 0.3
219 1 0.0120117 0.6 0.35
216 1 0.0239138 0.55 0.35
221 1 0.0239138 0.6 0.3
2273 4 0.0721925 0.570911 0.301049
1766 4 0.107681 0.62232 0.340472
1948 4 0.145549 0.636244 0.351034
2025 4 0.162136 0.616251 0.335504
2078 4 0.274671 0.560559 0.318003
1753 4 0.305626 0.546163 0.354536
672 2 0.5 0.55 0.35
673 2 0.5 0.6 0.3
2766 4 0.583768 0.62232 0.340472
2948 4 0.621635 0.636244 0.351034
2753 4 0.781713 0.546163 0.354536
2975 5 0.803809 0.606907 0.282351
1014 3 0.976086 0.55 0.35
1017 3 0.976086 0.6 0.3
1012 3 0.987988 0.55 0.3
1016 3 0.999891 0.55 0.35
1019 3 0.987988 0.6 0.35
1021 3 0.999891 0.6 0.3
218 1 0.0120117 0.65 0.3
220 1 0.0001095 0.65 0.35
223 1 0.0001095 0.7 0.3
225 1 0.0120117 0.7 0.35
222 1 0.0239138 0.65 0.35
227 1 0.0239138 0.7 0.3
1811 4 0.123275 0.718944 0.293826
1575 4 0.210793 0.721803 0.348414
2063 4 0.20184 0.680869 0.360006
1467 4 0.214622 0.717518 0.329249
2276 4 0.254958 0.662543 0.361023
2044 4 0.271593 0.707702 0.353189
2287 4 0.278095 0.655818 0.332872
2167 4 0.347257 0.646356 0.304727
1595 4 0.398428 0.70568 0.359432
674 2 0.5 0.65 0.35
675 2 0.5 0.7 0.3
2811 4 0.599361 0.718944 0.293826
2467 4 0.690709 0.717518 0.329249
2575 4 0.686879 0.721803 0.348414
2595 4 0.874514 0.70568 0.359432
1020 3 0.976086 0.65 0.35
1023 3 0.976086 0.7 0.3
1018 3 0.987988 0.65 0.3