ITEM: TIMESTEP
0
ITEM: NUMBER OF ATOMS
100
ITEM: BOX BOUNDS ff ff ff
0.0000000000000000e+00 1.5850000000000000e+02
0.0000000000000000e+00 1.5850000000000000e+02
0.0000000000000000e+00 1.0000000000000000e+02
ITEM: ATOMS id type xs ys zs
1 1 0.185258 0.191011 0.505458
2 1 0.186933 0.200259 0.509499
3 1 0.196557 0.201662 0.509549
4 1 0.199578 0.210263 0.51444
5 1 0.209028 0.211468 0.512231
6 1 0.212003 0.220662 0.509352
7 1 0.22125 0.222774 0.511794
8 1 0.223295 0.232772 0.511593
9 1 0.233025 0.233759 0.512905
10 1 0.23459 0.243154 0.514851
11 1 0.244062 0.24604 0.515008
12 1 0.246581 0.255834 0.517537
13 1 0.255528 0.257768 0.511599
14 1 0.259056 0.267129 0.514372
15 1 0.268008 0.269677 0.508498
16 1 0.271513 0.278356 0.514171
17 1 0.280672 0.281663 0.50949
18 1 0.283395 0.29039 0.515981
19 1 0.292787 0.293134 0.510127
20 1 0.297488 0.302151 0.514164
21 1 0.306781 0.305616 0.509136
22 1 0.3112 0.314099 0.51461
23 1 0.318728 0.319496 0.507415
24 1 0.325252 0.325203 0.516379
25 1 0.3306 0.332907 0.507857
26 1 0.337141 0.338993 0.51553
27 1 0.34142 0.347978 0.510719
28 1 0.351005 0.350631 0.513714
29 1 0.354692 0.360667 0.511664
30 1 0.364129 0.364557 0.514987
31 1 0.368171 0.373953 0.51407
32 1 0.378211 0.377428 0.514605
33 1 0.382431 0.387212 0.515599
34 1 0.392257 0.390214 0.513518
35 1 0.39585 0.399578 0.516317
36 1 0.405053 0.403562 0.510818
37 1 0.409362 0.412503 0.516702
38 1 0.417577 0.417502 0.509659
39 1 0.423976 0.424554 0.516775
40 1 0.430218 0.43086 0.508093
41 1 0.437824 0.436844 0.514278
42 1 0.442304 0.445976 0.509381
43 1 0.451682 0.44982 0.51454
44 1 0.455905 0.459281 0.510848
45 1 0.46569 0.463923 0.510418
46 1 0.467921 0.474116 0.508606
47 1 0.478051 0.477599 0.506533
48 1 0.482081 0.487192 0.508625
49 1 0.491764 0.490814 0.506274
50 1 0.496117 0.499652 0.511424
51 1 0.505402 0.503877 0.507947
52 1 0.509837 0.512583 0.514492
53 1 0.517313 0.518342 0.506207
54 1 0.522994 0.527122 0.511382
55 1 0.530257 0.532633 0.50355
56 1 0.53705 0.539273 0.510711
57 1 0.544251 0.545241 0.503471
58 1 0.550874 0.552517 0.510656
59 1 0.558196 0.558931 0.503391
60 1 0.565699 0.5649 0.51094
61 1 0.571535 0.572617 0.504604
62 1 0.580488 0.577651 0.511062
63 1 0.583973 0.587334 0.507591
64 1 0.59388 0.591287 0.511779
65 1 0.597278 0.600993 0.507927
66 1 0.606135 0.605949 0.513011
67 1 0.611495 0.614893 0.508334
68 1 0.620756 0.61873 0.513222
69 1 0.624966 0.627999 0.508021
70 1 0.634467 0.632267 0.512608
71 1 0.637707 0.641502 0.508535
72 1 0.647068 0.645409 0.511088
73 1 0.649461 0.655599 0.50848
74 1 0.658885 0.660179 0.511113
75 1 0.661204 0.670127 0.509785
76 1 0.670968 0.67338 0.50959
77 1 0.674142 0.682945 0.511428
78 1 0.683509 0.686461 0.510981
79 1 0.687051 0.695826 0.51399
80 1 0.695936 0.700098 0.508114
81 1 0.699119 0.709269 0.513087
82 1 0.708348 0.713358 0.511445
83 1 0.710327 0.723274 0.510068
84 1 0.719647 0.728054 0.512649
85 1 0.722856 0.737799 0.508611
86 1 0.732369 0.740278 0.513591
87 1 0.735938 0.749228 0.508785
88 1 0.743741 0.752265 0.515337
89 1 0.747344 0.760321 0.509616
90 1 0.755654 0.764262 0.51568
91 1 0.758771 0.772274 0.507921
92 1 0.767117 0.776431 0.511334
93 1 0.77013 0.784669 0.505964
94 1 0.779507 0.786465 0.509757
95 1 0.781766 0.795873 0.505967
96 1 0.789713 0.798843 0.514299
97 1 0.794404 0.806884 0.509015
98 1 0.800315 0.811686 0.518284
99 1 0.805729 0.817319 0.510302
100 1 0.810238 0.824733 0.518164
ITEM: TIMESTEP
10
ITEM: NUMBER OF ATOMS
100
ITEM: BOX BOUNDS ff ff ff
0.0000000000000000e+00 1.5850000000000000e+02
0.0000000000000000e+00 1.5850000000000000e+02
0.0000000000000000e+00 1.0000000000000000e+02
ITEM: ATOMS id type xs ys zs
1 1 0.185572 0.191952 0.506242
2 1 0.188309 0.200971 0.509975
3 1 0.197906 0.201756 0.510131
4 1 0.200336 0.211143 0.510806
5 1 0.210082 0.212578 0.511047
6 1 0.212227 0.221922 0.513184
7 1 0.221772 0.223774 0.511548
8 1 0.223987 0.233221 0.513328
9 1 0.233563 0.234878 0.512798
10 1 0.235821 0.244475 0.514522
11 1 0.245291 0.246711 0.51247
12 1 0.247762 0.256329 0.514622
13 1 0.257315 0.258902 0.512248
14 1 0.260113 0.268327 0.515194
15 1 0.26952 0.270898 0.511188
16 1 0.272762 0.280107 0.514799
17 1 0.281723 0.282751 0.509369
18 1 0.285813 0.291268 0.514862
19 1 0.294247 0.295032 0.508331
20 1 0.29916 0.302619 0.515479
21 1 0.306609 0.307824 0.508048
22 1 0.312277 0.314879 0.516073
23 1 0.318784 0.321099 0.508648
24 1 0.325492 0.327304 0.516004
25 1 0.331087 0.334282 0.508253
26 1 0.338747 0.339319 0.515682
27 1 0.343368 0.347563 0.509586
28 1 0.351901 0.351875 0.516007
29 1 0.355746 0.361072 0.511725
30 1 0.365422 0.364564 0.514758
31 1 0.368582 0.374424 0.51336
32 1 0.378638 0.377497 0.51315
33 1 0.382121 0.387188 0.51529
34 1 0.391736 0.390653 0.51206
35 1 0.396011 0.399831 0.516231
36 1 0.40479 0.403999 0.510434
37 1 0.410011 0.412304 0.516793
38 1 0.41759 0.417836 0.509838
39 1 0.424168 0.424767 0.516781
40 1 0.430255 0.431801 0.508901
41 1 0.437967 0.437803 0.515011
42 1 0.442777 0.446126 0.508361
43 1 0.451817 0.450594 0.513032
44 1 0.455839 0.459836 0.508254
45 1 0.465423 0.463532 0.510753
46 1 0.468737 0.473574 0.509663
47 1 0.478714 0.476947 0.509982
48 1 0.482333 0.486875 0.511347
49 1 0.491889 0.490597 0.507819
50 1 0.495511 0.500225 0.510495
51 1 0.504576 0.504711 0.505698
52 1 0.509366 0.513656 0.510911
53 1 0.518336 0.518076 0.505172
54 1 0.523613 0.526433 0.511566
55 1 0.531602 0.531921 0.505063
56 1 0.537672 0.539298 0.511906
57 1 0.544469 0.545982 0.504662
58 1 0.551704 0.552266 0.51171
59 1 0.557845 0.55974 0.5044
60 1 0.565512 0.56544 0.511354
61 1 0.57115 0.573206 0.504861
62 1 0.57894 0.578594 0.512208
63 1 0.584504 0.58659 0.505781
64 1 0.592886 0.591552 0.512334
65 1 0.597795 0.600099 0.506653
66 1 0.60647 0.604564 0.512474
67 1 0.610515 0.613732 0.507948
68 1 0.619795 0.617848 0.51202
69 1 0.623182 0.627707 0.508513
70 1 0.632644 0.631795 0.511716
71 1 0.63592 0.641448 0.509007
72 1 0.645524 0.645134 0.511275
73 1 0.648739 0.654993 0.50956
74 1 0.658552 0.658588 0.510971
75 1 0.661497 0.6687 0.5104
76 1 0.671131 0.672421 0.510817
77 1 0.673843 0.682436 0.510287
78 1 0.683302 0.686088 0.51135
79 1 0.685322 0.696063 0.510258
80 1 0.695052 0.699405 0.512033
81 1 0.697571 0.709213 0.510308
82 1 0.707177 0.712296 0.511972
83 1 0.70958 0.722099 0.510596
84 1 0.719148 0.725123 0.511998
85 1 0.721705 0.734799 0.51057
86 1 0.730913 0.737989 0.513477
87 1 0.733239 0.747475 0.510055
88 1 0.74248 0.750685 0.513356
89 1 0.745293 0.759876 0.508737
90 1 0.75442 0.762803 0.513011
91 1 0.7577 0.77161 0.507641
92 1 0.76643 0.774831 0.512934
93 1 0.770172 0.783069 0.506329
94 1 0.777936 0.786939 0.513748
95 1 0.781762 0.794448 0.506429
96 1 0.788956 0.798626 0.514464
97 1 0.793088 0.806133 0.507243
98 1 0.799658 0.810131 0.516374
99 1 0.803851 0.817825 0.509578
100 1 0.809642 0.822352 0.519388
ITEM: TIMESTEP
20
ITEM: NUMBER OF ATOMS
100
ITEM: BOX BOUNDS ff ff ff
0.0000000000000000e+00 1.5850000000000000e+02
0.0000000000000000e+00 1.5850000000000000e+02
0.0000000000000000e+00 1.0000000000000000e+02
ITEM: ATOMS id type xs ys zs
1 1 0.187567 0.192833 0.507841
2 1 0.189595 0.202294 0.50923
3 1 0.199194 0.203826 0.508232
4 1 0.201871 0.212688 0.512978
5 1 0.211498 0.214272 0.511155
6 1 0.213961 0.223689 0.512135
7 1 0.223681 0.225218 0.512
8 1 0.225815 0.234701 0.513858
9 1 0.235277 0.237217 0.511625
10 1 0.23753 0.246582 0.514693
11 1 0.247075 0.248763 0.512139
12 1 0.250022 0.257938 0.515665
13 1 0.259075 0.260671 0.510652
14 1 0.262576 0.269542 0.515027
15 1 0.271345 0.272639 0.509233
16 1 0.275075 0.280989 0.515605
17 1 0.283428 0.284817 0.509556
18 1 0.287564 0.292928 0.516325
19 1 0.295516 0.297131 0.509235
20 1 0.300267 0.304996 0.515911
21 1 0.307702 0.309819 0.508141
22 1 0.313836 0.31642 0.515689
23 1 0.320409 0.322531 0.508048
24 1 0.327265 0.328147 0.516068
25 1 0.332034 0.336197 0.509598
26 1 0.340375 0.340552 0.516089
27 1 0.344155 0.349391 0.510741
28 1 0.353522 0.352887 0.514631
29 1 0.357039 0.36235 0.511559
30 1 0.366835 0.365383 0.513766
31 1 0.370142 0.375171 0.513211
32 1 0.379993 0.378383 0.513234
33 1 0.383191 0.388187 0.514743
34 1 0.39281 0.391463 0.511648
35 1 0.39672 0.400661 0.515931
36 1 0.40541 0.404925 0.510043
37 1 0.41031 0.413212 0.51627
38 1 0.417722 0.418738 0.508678
39 1 0.424169 0.425674 0.515627
40 1 0.43048 0.432495 0.507991
41 1 0.438355 0.437936 0.514922
42 1 0.443466 0.44622 0.508836
43 1 0.452244 0.450758 0.514478
44 1 0.456101 0.460076 0.50982
45 1 0.465581 0.464211 0.512428
46 1 0.468861 0.473939 0.508762
47 1 0.478807 0.477581 0.509134
48 1 0.482496 0.487453 0.508535
49 1 0.492506 0.490768 0.507926
50 1 0.496314 0.50035 0.511026
51 1 0.505848 0.504263 0.507742
52 1 0.510027 0.513469 0.512528
53 1 0.518457 0.51811 0.505997
54 1 0.523377 0.526683 0.511537
55 1 0.531267 0.531931 0.504437
56 1 0.536773 0.539724 0.511209
57 1 0.544684 0.545163 0.504672
58 1 0.550786 0.552383 0.512159
59 1 0.557883 0.558596 0.505036
60 1 0.564748 0.565053 0.512533
61 1 0.57077 0.57242 0.505658
62 1 0.578797 0.577822 0.512351
63 1 0.583684 0.586317 0.506094
64 1 0.592257 0.591264 0.511654
65 1 0.596508 0.60037 0.506574
66 1 0.605447 0.60481 0.511931
67 1 0.609666 0.613811 0.50719
68 1 0.618767 0.617865 0.512226
69 1 0.622826 0.626993 0.507605
70 1 0.631961 0.630731 0.512328
71 1 0.635377 0.640124 0.508314
72 1 0.644517 0.644059 0.512379
73 1 0.64737 0.653647 0.508648
74 1 0.65654 0.657658 0.512056
75 1 0.659204 0.667373 0.508785
76 1 0.668629 0.670978 0.51207
77 1 0.671704 0.68062 0.509821
78 1 0.681378 0.683652 0.511641
79 1 0.684061 0.693511 0.510305
80 1 0.693645 0.696907 0.51156
81 1 0.696169 0.706828 0.510475
82 1 0.705662 0.710458 0.512297
83 1 0.707887 0.720296 0.510062
84 1 0.717126 0.723998 0.513316
85 1 0.720015 0.733313 0.509168
86 1 0.729337 0.736388 0.513006
87 1 0.732224 0.745533 0.508687
88 1 0.74125 0.748545 0.513371
89 1 0.744226 0.757522 0.508586
90 1 0.752882 0.760838 0.514033
91 1 0.755696 0.769476 0.507904
92 1 0.764194 0.772944 0.513313
93 1 0.7673 0.78148 0.507048
94 1 0.775996 0.784307 0.512483
95 1 0.779378 0.79294 0.507147
96 1 0.78738 0.79614 0.51456
97 1 0.790848 0.804355 0.508347
98 1 0.79794 0.808434 0.516762
99 1 0.801885 0.81614 0.509596
100 1 0.808676 0.820751 0.517737
ITEM: TIMESTEP
30
ITEM: NUMBER OF ATOMS
100
ITEM: BOX BOUNDS ff ff ff
0.0000000000000000e+00 1.5850000000000000e+02
0.0000000000000000e+00 1.5850000000000000e+02
0.0000000000000000e+00 1.0000000000000000e+02
ITEM: ATOMS id type xs ys zs
1 1 0.189408 0.195099 0.507354
2 1 0.192222 0.20411 0.510886
3 1 0.20174 0.205346 0.509778
4 1 0.204003 0.214752 0.511292
5 1 0.213475 0.216472 0.509931
6 1 0.215702 0.225676 0.513405
7 1 0.225 0.227744 0.510997
8 1 0.227728 0.236724 0.515324
9 1 0.236898 0.238855 0.510707
10 1 0.239863 0.24782 0.51489
11 1 0.24897 0.250406 0.510446
12 1 0.251886 0.25947 0.515043
13 1 0.26097 0.262466 0.510441
14 1 0.264219 0.271255 0.515942
15 1 0.272969 0.274567 0.510253
16 1 0.276831 0.283012 0.5162
17 1 0.284788 0.286835 0.508648
18 1 0.289825 0.294307 0.515813
19 1 0.29719 0.299302 0.508297
20 1 0.303045 0.305667 0.516512
21 1 0.308947 0.312189 0.508665
22 1 0.315728 0.31786 0.516635
23 1 0.320994 0.325144 0.509185
24 1 0.328678 0.329999 0.516396
25 1 0.333492 0.337711 0.509134
26 1 0.342007 0.341733 0.51538
27 1 0.346007 0.350468 0.509921
28 1 0.355058 0.353949 0.515117
29 1 0.358205 0.363513 0.511993
30 1 0.367976 0.36658 0.513804
31 1 0.371095 0.376449 0.513664
32 1 0.380888 0.379529 0.511927
33 1 0.384219 0.38919 0.514525
34 1 0.393537 0.392651 0.510088
35 1 0.397776 0.401534 0.515323
36 1 0.406386 0.406085 0.509495
37 1 0.411534 0.41405 0.516258
38 1 0.419129 0.419494 0.50918
39 1 0.425129 0.426585 0.516438
40 1 0.431309 0.433216 0.508368
41 1 0.438549 0.439457 0.515005
42 1 0.443801 0.447232 0.507694
43 1 0.452409 0.451842 0.513314
44 1 0.456713 0.460654 0.507782
45 1 0.466139 0.464236 0.511989
46 1 0.469622 0.473959 0.509577
47 1 0.479477 0.47734 0.511377
48 1 0.482792 0.48729 0.510804
49 1 0.492611 0.490668 0.509482
50 1 0.495747 0.500658 0.510105
51 1 0.505385 0.504396 0.507101
52 1 0.509377 0.513955 0.510179
53 1 0.518813 0.517784 0.505991
54 1 0.523296 0.526543 0.511753
55 1 0.531994 0.531184 0.506076
56 1 0.537248 0.53925 0.512702
57 1 0.544748 0.544992 0.505661
58 1 0.550777 0.552279 0.512799
59 1 0.557274 0.558773 0.504814
60 1 0.56396 0.565263 0.512107
61 1 0.570126 0.572319 0.504839
62 1 0.577374 0.578114 0.512418
63 1 0.583305 0.585474 0.505571
64 1 0.590852 0.590808 0.513011
65 1 0.596159 0.598603 0.506036
66 1 0.604151 0.60355 0.512946
67 1 0.608746 0.611906 0.506673
68 1 0.61718 0.616716 0.512579
69 1 0.62081 0.625833 0.507083
70 1 0.629761 0.630084 0.512028
71 1 0.633285 0.639473 0.508049
72 1 0.642663 0.643145 0.512073
73 1 0.646117 0.652662 0.508678
74 1 0.655557 0.656096 0.512135
75 1 0.658761 0.665656 0.508787
76 1 0.668023 0.669453 0.512632
77 1 0.670816 0.678988 0.508897
78 1 0.679912 0.682883 0.512843
79 1 0.682473 0.692429 0.508819
80 1 0.691423 0.696154 0.513271
81 1 0.694374 0.705383 0.508957
82 1 0.703646 0.70855 0.512881
83 1 0.706656 0.717852 0.508931
84 1 0.715827 0.720987 0.513053
85 1 0.718414 0.730343 0.5094
86 1 0.727511 0.733811 0.513121
87 1 0.729754 0.743244 0.509445
88 1 0.738902 0.746466 0.513095
89 1 0.741631 0.75562 0.508343
90 1 0.75067 0.758623 0.512836
91 1 0.753888 0.767359 0.507476
92 1 0.762518 0.770499 0.513585
93 1 0.765821 0.779025 0.507781
94 1 0.773875 0.782599 0.514634
95 1 0.777203 0.790767 0.507928
96 1 0.785177 0.794553 0.51471
97 1 0.788427 0.802648 0.507825
98 1 0.796401 0.80596 0.514953
99 1 0.799206 0.814701 0.50966
100 1 0.806855 0.817701 0.517657
ITEM: TIMESTEP
40
ITEM: NUMBER OF ATOMS
100
ITEM: BOX BOUNDS ff ff ff
0.0000000000000000e+00 1.5850000000000000e+02
0.0000000000000000e+00 1.5850000000000000e+02
0.0000000000000000e+00 1.0000000000000000e+02
ITEM: ATOMS id type xs ys zs
1 1 0.192036 0.196923 0.50775
2 1 0.194344 0.206034 0.51167
3 1 0.203624 0.208105 0.508696
4 1 0.206179 0.217096 0.51217
5 1 0.215638 0.218815 0.509894
6 1 0.218638 0.22739 0.515197
7 1 0.22731 0.229965 0.509434
8 1 0.229973 0.239072 0.513063
9 1 0.239487 0.24122 0.511108
10 1 0.242232 0.250204 0.515824
11 1 0.250971 0.253162 0.510165
12 1 0.254482 0.261619 0.516065
13 1 0.26272 0.265172 0.50913
14 1 0.267135 0.272783 0.516277
15 1 0.274766 0.277051 0.508673
16 1 0.279563 0.284253 0.516613
17 1 0.286811 0.289019 0.508843
18 1 0.291817 0.296137 0.516695
19 1 0.298401 0.301743 0.508699
20 1 0.304511 0.307942 0.516919
21 1 0.310739 0.313898 0.508749
22 1 0.317763 0.319394 0.516382
23 1 0.322823 0.326788 0.508844
24 1 0.330898 0.33112 0.51578
25 1 0.334904 0.339709 0.509946
26 1 0.343849 0.34335 0.515167
27 1 0.347095 0.352755 0.5116
28 1 0.356687 0.355685 0.514242
29 1 0.359797 0.365382 0.512186
30 1 0.369614 0.368092 0.512302
31 1 0.372641 0.377866 0.512668
32 1 0.382398 0.380711 0.511567
33 1 0.385689 0.390227 0.51485
34 1 0.395168 0.393581 0.51142
35 1 0.398728 0.402895 0.515541
36 1 0.407148 0.407201 0.509081
37 1 0.411918 0.415544 0.515072
38 1 0.419468 0.420761 0.50755
39 1 0.425979 0.427106 0.51526
40 1 0.432286 0.434064 0.508009
41 1 0.439742 0.439564 0.515408
42 1 0.444774 0.447632 0.508704
43 1 0.45309 0.452724 0.514597
44 1 0.457404 0.461183 0.508123
45 1 0.46643 0.465499 0.512742
46 1 0.470052 0.474731 0.508244
47 1 0.479778 0.478075 0.51094
48 1 0.483053 0.487832 0.509589
49 1 0.492915 0.490874 0.509159
50 1 0.496144 0.500616 0.510411
51 1 0.505908 0.503946 0.508249
52 1 0.509513 0.513516 0.511559
53 1 0.519024 0.517117 0.507935
54 1 0.522709 0.526507 0.511954
55 1 0.531503 0.530927 0.506217
56 1 0.535845 0.539631 0.511629
57 1 0.544101 0.544552 0.505108
58 1 0.549638 0.552155 0.512216
59 1 0.557363 0.55758 0.505246
60 1 0.563326 0.564536 0.512937
61 1 0.570325 0.570929 0.505905
62 1 0.576627 0.577599 0.513467
63 1 0.582531 0.58462 0.505733
64 1 0.589623 0.590696 0.512741
65 1 0.594638 0.598424 0.505361
66 1 0.602684 0.603126 0.512329
67 1 0.607223 0.611513 0.506402
68 1 0.615637 0.615806 0.512847
69 1 0.620057 0.624339 0.507041
70 1 0.628385 0.628866 0.513331
71 1 0.632755 0.637181 0.506727
72 1 0.64088 0.642057 0.513256
73 1 0.644844 0.65069 0.507201
74 1 0.653206 0.655166 0.513268
75 1 0.656479 0.664293 0.508116
76 1 0.665507 0.668187 0.512687
77 1 0.668764 0.677457 0.508434
78 1 0.677944 0.680689 0.512726
79 1 0.681065 0.689953 0.508636
80 1 0.690128 0.69334 0.513145
81 1 0.692941 0.702621 0.508941
82 1 0.701873 0.706333 0.513278
83 1 0.704105 0.715728 0.509141
84 1 0.713207 0.719222 0.512942
85 1 0.715993 0.728399 0.508447
86 1 0.724916 0.731769 0.513557
87 1 0.728429 0.740324 0.507662
88 1 0.736991 0.743923 0.513726
89 1 0.740392 0.752623 0.508214
90 1 0.748924 0.756399 0.513826
91 1 0.75138 0.765436 0.508896
92 1 0.760376 0.768327 0.513339
93 1 0.763027 0.777144 0.507973
94 1 0.771746 0.780189 0.513203
95 1 0.774622 0.788898 0.507745
96 1 0.783065 0.791385 0.514373
97 1 0.785585 0.800163 0.509503
98 1 0.793701 0.803328 0.516301
99 1 0.796405 0.811313 0.509188
100 1 0.804281 0.815124 0.515928
ITEM: TIMESTEP
50
ITEM: NUMBER OF ATOMS
100
ITEM: BOX BOUNDS ff ff ff
0.0000000000000000e+00 1.5850000000000000e+02
0.0000000000000000e+00 1.5850000000000000e+02
0.0000000000000000e+00 1.0000000000000000e+02
ITEM: ATOMS id type xs ys zs
1 1 0.19472 0.199786 0.50782
2 1 0.197383 0.20861 0.512667
3 1 0.20644 0.210636 0.508291
4 1 0.2093 0.219258 0.513746
5 1 0.218228 0.221602 0.508805
6 1 0.220866 0.230469 0.513747
7 1 0.229991 0.232625 0.509656
8 1 0.233105 0.24106 0.515732
9 1 0.241369 0.24423 0.509083
10 1 0.24499 0.252399 0.515562
11 1 0.253224 0.25584 0.509087
12 1 0.257298 0.263685 0.51624
13 1 0.265162 0.267635 0.509086
14 1 0.269628 0.27508 0.516662
15 1 0.276869 0.279684 0.508841
16 1 0.282155 0.286497 0.516793
17 1 0.288672 0.291972 0.508599
18 1 0.294702 0.297939 0.516801
19 1 0.300551 0.304346 0.508763
20 1 0.30741 0.309604 0.516748
21 1 0.312459 0.316763 0.509039
22 1 0.320191 0.321273 0.516259
23 1 0.32456 0.329301 0.509485
24 1 0.333026 0.333052 0.515703
25 1 0.336643 0.341843 0.510394
26 1 0.345828 0.345081 0.514746
27 1 0.348801 0.354467 0.511065
28 1 0.358435 0.357258 0.513323
29 1 0.36143 0.366968 0.512368
30 1 0.371259 0.36967 0.512627
31 1 0.374112 0.379411 0.513825
32 1 0.383718 0.382394 0.511216
33 1 0.387114 0.391895 0.514311
34 1 0.396254 0.395456 0.509523
35 1 0.400277 0.404242 0.514844
36 1 0.408733 0.408483 0.508621
37 1 0.413458 0.416369 0.515698
38 1 0.420964 0.421611 0.508365
39 1 0.426755 0.428812 0.515502
40 1 0.433209 0.435051 0.507564
41 1 0.440196 0.440909 0.51506
42 1 0.445442 0.448325 0.507557
43 1 0.453596 0.453053 0.514165
44 1 0.457961 0.461707 0.508373
45 1 0.467013 0.465759 0.512953
46 1 0.470404 0.47509 0.508684
47 1 0.480046 0.478211 0.511634
48 1 0.483363 0.48785 0.508997
49 1 0.493158 0.491135 0.510335
50 1 0.496352 0.500927 0.50999
51 1 0.506234 0.504109 0.509292
52 1 0.50921 0.51393 0.511066
53 1 0.518824 0.517209 0.508025
54 1 0.522541 0.526686 0.511324
55 1 0.531724 0.530551 0.506834
56 1 0.535568 0.539406 0.512295
57 1 0.544282 0.543391 0.506471
58 1 0.548742 0.551835 0.512576
59 1 0.556717 0.55677 0.505745
60 1 0.561963 0.564442 0.512655
61 1 0.569177 0.570196 0.505262
62 1 0.575168 0.576914 0.513197
63 1 0.581562 0.583377 0.505654
64 1 0.588098 0.589743 0.513262
65 1 0.594029 0.596756 0.505778
66 1 0.600813 0.602705 0.513526
67 1 0.606434 0.609773 0.505872
68 1 0.613712 0.615223 0.513283
69 1 0.618838 0.622776 0.506033
70 1 0.626462 0.627878 0.513152
71 1 0.630982 0.636005 0.506554
72 1 0.63899 0.640564 0.513516
73 1 0.642974 0.649022 0.507159
74 1 0.65109 0.653519 0.513568
75 1 0.654977 0.66199 0.507219
76 1 0.663304 0.666164 0.513544
77 1 0.666999 0.674756 0.507627
78 1 0.675554 0.678707 0.513381
79 1 0.678916 0.687641 0.508057
80 1 0.6877 0.691423 0.513238
81 1 0.690751 0.700471 0.508171
82 1 0.699483 0.704176 0.51348
83 1 0.702614 0.713105 0.508203
84 1 0.711168 0.716794 0.513756
85 1 0.714239 0.725626 0.508126
86 1 0.722933 0.729113 0.513529
87 1 0.725908 0.737989 0.508207
88 1 0.734573 0.741218 0.513641
89 1 0.737368 0.750075 0.508225
90 1 0.745985 0.75329 0.51369
91 1 0.748793 0.762052 0.50817
92 1 0.757381 0.765234 0.513829
93 1 0.760164 0.773944 0.50827
94 1 0.768898 0.776837 0.513545
95 1 0.771467 0.785811 0.508659
96 1 0.77999 0.7887 0.51451
97 1 0.782714 0.79753 0.509372
98 1 0.791217 0.800572 0.515181
99 1 0.793627 0.809192 0.509498
100 1 0.802136 0.81209 0.51542
ITEM: TIMESTEP
60
ITEM: NUMBER OF ATOMS
100
ITEM: BOX BOUNDS ff ff ff
0.0000000000000000e+00 1.5850000000000000e+02
0.0000000000000000e+00 1.5850000000000000e+02
0.0000000000000000e+00 1.0000000000000000e+02
ITEM: ATOMS id type xs ys zs
1 1 0.19763 0.202626 0.50765
2 1 0.20059 0.21098 0.513878
3 1 0.209039 0.213747 0.507755
4 1 0.212037 0.222099 0.514149
5 1 0.220842 0.224519 0.508543
6 1 0.224871 0.232116 0.515934
7 1 0.232205 0.236166 0.507744
8 1 0.235738 0.244301 0.514354
9 1 0.244559 0.247043 0.508895
10 1 0.248173 0.254773 0.516572
11 1 0.255978 0.258776 0.509379
12 1 0.260336 0.266268 0.516694
13 1 0.267117 0.271134 0.50814
14 1 0.272834 0.277078 0.516451
15 1 0.279111 0.282682 0.508321
16 1 0.284977 0.288438 0.517066
17 1 0.290682 0.294636 0.50889
18 1 0.297269 0.300101 0.51687
19 1 0.302656 0.306874 0.508925
20 1 0.310043 0.311571 0.516623
21 1 0.314325 0.319173 0.509177
22 1 0.322549 0.323224 0.515821
23 1 0.32647 0.331793 0.510001
24 1 0.335404 0.335128 0.514927
25 1 0.338595 0.344275 0.510582
26 1 0.348046 0.347023 0.514152
27 1 0.350967 0.356622 0.512251
28 1 0.36062 0.359321 0.513669
29 1 0.363284 0.369063 0.512753
30 1 0.373009 0.371594 0.511056
31 1 0.375734 0.381192 0.512529
32 1 0.385372 0.384031 0.510328
33 1 0.38852 0.393302 0.514676
34 1 0.397793 0.396599 0.510664
35 1 0.401537 0.405515 0.515593
36 1 0.409565 0.409719 0.508422
37 1 0.414293 0.417686 0.515126
38 1 0.421584 0.422876 0.507394
39 1 0.428187 0.429243 0.514754
40 1 0.434259 0.436174 0.507525
41 1 0.44121 0.441702 0.515581
42 1 0.446275 0.449136 0.507817
43 1 0.453985 0.454389 0.514433
44 1 0.459168 0.462192 0.507572
45 1 0.467709 0.46672 0.513356
46 1 0.471337 0.475442 0.507501
47 1 0.480431 0.478725 0.512612
48 1 0.483545 0.488288 0.50953
49 1 0.493178 0.491532 0.51095
50 1 0.496333 0.501261 0.509974
51 1 0.506205 0.504006 0.509263
52 1 0.508966 0.51379 0.510395
53 1 0.518732 0.516562 0.508823
54 1 0.522083 0.526134 0.511466
55 1 0.531471 0.529946 0.50787
56 1 0.534832 0.539197 0.511955
57 1 0.543586 0.542965 0.506148
58 1 0.547772 0.551615 0.512175
59 1 0.556378 0.555999 0.506631
60 1 0.56086 0.564246 0.513157
61 1 0.568983 0.568859 0.506408
62 1 0.573324 0.576988 0.513235
63 1 0.580813 0.582062 0.505928
64 1 0.586432 0.58935 0.512943
65 1 0.593221 0.595149 0.505022
66 1 0.599472 0.601139 0.513343
67 1 0.605039 0.608088 0.505765
68 1 0.611752 0.613891 0.513749
69 1 0.617011 0.621304 0.506447
70 1 0.624052 0.626853 0.51401
71 1 0.629393 0.634024 0.506289
72 1 0.63662 0.639405 0.513748
73 1 0.641595 0.646841 0.506158
74 1 0.649165 0.651757 0.513455
75 1 0.653443 0.659924 0.506895
76 1 0.66142 0.664387 0.513729
77 1 0.66515 0.67274 0.50729
78 1 0.673214 0.676947 0.513897
79 1 0.67703 0.685273 0.507185
80 1 0.684908 0.689496 0.514128
81 1 0.688552 0.697676 0.507335
82 1 0.696839 0.70146 0.513854
83 1 0.700112 0.710073 0.50794
84 1 0.70864 0.713673 0.51346
85 1 0.711471 0.722516 0.507925
86 1 0.720045 0.726142 0.513793
87 1 0.723158 0.73478 0.508144
88 1 0.731765 0.738396 0.513852
89 1 0.73485 0.747137 0.50808
90 1 0.74343 0.75054 0.513636
91 1 0.746312 0.759404 0.508453
92 1 0.755176 0.762477 0.513557
93 1 0.757508 0.771342 0.508577
94 1 0.766084 0.774359 0.514419
95 1 0.768803 0.782963 0.508641
96 1 0.777282 0.785668 0.514287
97 1 0.779591 0.794584 0.509279
98 1 0.788251 0.79716 0.514775
99 1 0.790233 0.80585 0.509387
100 1 0.798816 0.808598 0.515145
ITEM: TIMESTEP
70
ITEM: NUMBER OF ATOMS
100
ITEM: BOX BOUNDS ff ff ff
0.0000000000000000e+00 1.5850000000000000e+02
0.0000000000000000e+00 1.5850000000000000e+02
0.0000000000000000e+00 1.0000000000000000e+02
ITEM: ATOMS id type xs ys zs
1 1 0.200895 0.20634 0.507538
2 1 0.204626 0.213878 0.515046
3 1 0.212231 0.217315 0.50737
4 1 0.216139 0.224633 0.515153
5 1 0.22371 0.228308 0.507634
6 1 0.227844 0.235578 0.515312
7 1 0.23549 0.239439 0.507971
8 1 0.239872 0.246462 0.51594
9 1 0.246928 0.250744 0.50786
10 1 0.251577 0.257521 0.516335
11 1 0.258323 0.26258 0.508371
12 1 0.26395 0.268663 0.516757
13 1 0.270153 0.274206 0.508313
14 1 0.276065 0.279987 0.516837
15 1 0.281686 0.286153 0.508569
16 1 0.288449 0.291056 0.516959
17 1 0.293244 0.297969 0.508635
18 1 0.300727 0.302499 0.516172
19 1 0.305065 0.310349 0.509412
20 1 0.313132 0.314102 0.516394
21 1 0.316802 0.322356 0.509621
22 1 0.325465 0.325548 0.515295
23 1 0.328881 0.334383 0.510299
24 1 0.338024 0.337271 0.514687
25 1 0.340644 0.346697 0.511456
26 1 0.350245 0.349299 0.513695
27 1 0.352901 0.358883 0.512065
28 1 0.362645 0.361339 0.512214
29 1 0.365084 0.371095 0.512685
30 1 0.374777 0.373409 0.51122
31 1 0.377908 0.3829 0.513679
32 1 0.387261 0.386096 0.510221
33 1 0.390324 0.395261 0.514712
34 1 0.399203 0.398511 0.509063
35 1 0.403304 0.40704 0.514904
36 1 0.411368 0.411529 0.50828
37 1 0.415965 0.419209 0.515475
38 1 0.423227 0.424197 0.507683
39 1 0.428926 0.431029 0.515375
40 1 0.435302 0.436928 0.50713
41 1 0.442015 0.44283 0.51489
42 1 0.44755 0.449921 0.507312
43 1 0.455127 0.454908 0.514426
44 1 0.459489 0.462975 0.507684
45 1 0.467847 0.467101 0.514049
46 1 0.47155 0.475826 0.507993
47 1 0.48058 0.479513 0.51259
48 1 0.484061 0.488677 0.508373
49 1 0.493616 0.491402 0.511581
50 1 0.496412 0.501016 0.509357
51 1 0.506086 0.50416 0.510769
52 1 0.509084 0.51397 0.510542
53 1 0.518906 0.516616 0.509389
54 1 0.521418 0.526421 0.51082
55 1 0.530965 0.529338 0.50843
56 1 0.534057 0.538856 0.511234
57 1 0.543381 0.542212 0.5077
58 1 0.546672 0.551393 0.512202
59 1 0.555676 0.554817 0.507089
60 1 0.559262 0.563647 0.512621
61 1 0.567809 0.567607 0.506673
62 1 0.572154 0.575843 0.513047
63 1 0.580014 0.58068 0.506274
64 1 0.584788 0.58841 0.513397
65 1 0.591911 0.593554 0.505541
66 1 0.596941 0.600726 0.51355
67 1 0.603813 0.606379 0.50598
68 1 0.60962 0.613054 0.513711
69 1 0.615848 0.619101 0.505616
70 1 0.621998 0.625111 0.513917
71 1 0.627824 0.631826 0.50634
72 1 0.634315 0.637641 0.514205
73 1 0.639442 0.64453 0.506007
74 1 0.646206 0.649959 0.514007
75 1 0.651125 0.657138 0.506271
76 1 0.658278 0.662214 0.513951
77 1 0.662854 0.669801 0.506475
78 1 0.670338 0.674405 0.513992
79 1 0.674596 0.682278 0.507027
80 1 0.682388 0.686633 0.514079
81 1 0.686127 0.69474 0.507232
82 1 0.694103 0.698842 0.514039
83 1 0.697647 0.707224 0.507622
84 1 0.705693 0.711283 0.513995
85 1 0.709016 0.719629 0.507196
86 1 0.717167 0.723116 0.513942
87 1 0.720556 0.731482 0.507853
88 1 0.728935 0.735004 0.513971
89 1 0.731784 0.743668 0.507932
90 1 0.740083 0.747001 0.514011
91 1 0.742938 0.755817 0.508638
92 1 0.75153 0.7589 0.514138
93 1 0.753847 0.767621 0.508559
94 1 0.762616 0.770465 0.513933
95 1 0.765186 0.779329 0.508885
96 1 0.773883 0.782251 0.5142
97 1 0.776439 0.791129 0.509272
98 1 0.785029 0.793862 0.51483
99 1 0.787142 0.802577 0.50918
100 1 0.795702 0.805416 0.514726
ITEM: TIMESTEP
80
ITEM: NUMBER OF ATOMS
100
ITEM: BOX BOUNDS ff ff ff
0.0000000000000000e+00 1.5850000000000000e+02
0.0000000000000000e+00 1.5850000000000000e+02
0.0000000000000000e+00 1.0000000000000000e+02
ITEM: ATOMS id type xs ys zs
1 1 0.20294 0.208824 0.507371
2 1 0.207404 0.215611 0.515625
3 1 0.214287 0.219909 0.50724
4 1 0.219085 0.226587 0.515689
5 1 0.225961 0.231022 0.507129
6 1 0.230733 0.237645 0.515832
7 1 0.237506 0.242465 0.507379
8 1 0.242735 0.248561 0.51644
9 1 0.248803 0.253884 0.50773
10 1 0.254664 0.259465 0.516443
11 1 0.260814 0.264916 0.508039
12 1 0.266405 0.270749 0.51672
13 1 0.271814 0.276968 0.508336
14 1 0.278705 0.281653 0.516489
15 1 0.283589 0.288554 0.508678
16 1 0.290703 0.292986 0.516489
17 1 0.295035 0.30047 0.509197
18 1 0.302829 0.304448 0.516372
19 1 0.306954 0.312272 0.509341
20 1 0.315541 0.315594 0.515313
21 1 0.318568 0.324404 0.510146
22 1 0.32751 0.327439 0.515206
23 1 0.33026 0.336672 0.511254
24 1 0.339768 0.339157 0.514015
25 1 0.342538 0.348568 0.511071
26 1 0.352094 0.350881 0.512904
27 1 0.354704 0.360497 0.512285
28 1 0.364351 0.362935 0.512042
29 1 0.366773 0.372557 0.513541
30 1 0.376303 0.375101 0.51106
31 1 0.379067 0.384532 0.513909
32 1 0.388337 0.387411 0.509515
33 1 0.391619 0.396312 0.514512
34 1 0.400262 0.399809 0.508974
35 1 0.404172 0.40829 0.514929
36 1 0.412238 0.412384 0.508005
37 1 0.41719 0.419866 0.515378
38 1 0.424379 0.425004 0.507497
39 1 0.42993 0.431803 0.515245
40 1 0.436126 0.437923 0.507503
41 1 0.442521 0.443834 0.515302
42 1 0.447962 0.450737 0.507189
43 1 0.455379 0.455835 0.5146
44 1 0.460038 0.463443 0.507121
45 1 0.468384 0.467411 0.513587
46 1 0.472272 0.475885 0.507862
47 1 0.481072 0.479471 0.513063
48 1 0.484184 0.488709 0.508807
49 1 0.49353 0.49195 0.512554
50 1 0.496409 0.501416 0.508924
51 1 0.50601 0.504214 0.510769
52 1 0.508835 0.513822 0.509225
53 1 0.518498 0.516594 0.510245
54 1 0.521101 0.526295 0.510517
55 1 0.530817 0.529024 0.509336
56 1 0.533627 0.5387 0.511494
57 1 0.543178 0.541546 0.508451
58 1 0.54612 0.550926 0.511718
59 1 0.55515 0.554226 0.507275
60 1 0.558557 0.563106 0.512457
61 1 0.567092 0.566946 0.506609
62 1 0.570692 0.575534 0.512865
63 1 0.579083 0.579599 0.506491
64 1 0.583206 0.5877 0.513331
65 1 0.591098 0.592073 0.506392
66 1 0.59567 0.599698 0.513665
67 1 0.602953 0.604783 0.506086
68 1 0.607977 0.611966 0.513796
69 1 0.614695 0.617468 0.505831
70 1 0.620077 0.624375 0.513845
71 1 0.626352 0.630345 0.505753
72 1 0.632465 0.636376 0.513866
73 1 0.63815 0.642902 0.505908
74 1 0.644593 0.648464 0.514184
75 1 0.649788 0.655393 0.506509
76 1 0.656569 0.660698 0.514384
77 1 0.661396 0.66782 0.506379
78 1 0.668413 0.672764 0.514234
79 1 0.672782 0.680264 0.506482
80 1 0.680188 0.684883 0.514167
81 1 0.684113 0.692633 0.506528
82 1 0.691637 0.697014 0.514236