# LAMMPS data file written by OVITO Basic 3.5.2
2334 atoms
3 atom types
-51.3742690098 102.7485380197 xlo xhi
-0.0022245711 25.8964823739 ylo yhi
-0.3210891813 0.3210891813 zlo zhi

Atoms  # atomic

1 2 -51.3742690098 0.0 0.0
3 2 -50.0899090098 0.0 0.0
5 2 -48.8055590098 0.0 0.0
7 2 -47.5211990098 0.0 0.0
9 2 -46.2368390098 0.0 0.0
11 2 -44.9524890098 0.0 0.0
13 2 -43.6681290098 0.0 0.0
15 2 -42.3837690098 0.0 0.0
17 2 -41.0993690098 0.0 0.0
19 2 -39.8150690098 0.0 0.0
21 2 -38.5306690098 0.0 0.0
23 2 -37.2463690098 0.0 0.0
25 2 -35.9619690098 0.0 0.0
27 2 -34.6776690098 0.0 0.0
29 2 -33.3932690098 0.0 0.0
31 2 -32.1088690098 0.0 0.0
33 2 -30.8245690098 0.0 0.0
35 2 -29.5401690098 0.0 0.0
37 2 -28.2558690098 0.0 0.0
39 2 -26.9714690098 0.0 0.0
41 2 -25.6871690098 0.0 0.0
43 2 -24.4027690098 0.0 0.0
45 2 -23.1184690098 0.0 0.0
47 2 -21.8340690098 0.0 0.0
49 2 -20.5496690098 0.0 0.0
51 2 -19.2653690098 0.0 0.0
53 2 -17.9809690098 0.0 0.0
55 2 -16.6966690098 0.0 0.0
57 2 -15.4122690098 0.0 0.0
59 2 -14.1279690098 0.0 0.0
61 2 -12.8435690098 0.0 0.0
63 2 -11.5591690098 0.0 0.0
65 2 -10.2748690098 0.0 0.0
67 2 -8.9904690098 0.0 0.0
69 2 -7.7061690098 0.0 0.0
71 2 -6.4217690098 0.0 0.0
73 2 -5.1374690098 0.0 0.0
75 2 -3.8530690098 0.0 0.0
77 2 -2.5686690098 0.0 0.0
79 2 -1.2843690098 0.0 0.0
2 2 -50.7320910098 1.11229 0.0
4 2 -49.4477290098 1.11229 0.0
6 2 -48.1633790098 1.11229 0.0
8 2 -46.8790190098 1.11229 0.0
10 2 -45.5946590098 1.11229 0.0
12 2 -44.3103090098 1.11229 0.0
14 2 -43.0259490098 1.11229 0.0
16 2 -41.7415890098 1.11229 0.0
18 2 -40.4572690098 1.11229 0.0
20 2 -39.1728690098 1.11229 0.0
22 2 -37.8885690098 1.11229 0.0
24 2 -36.6041690098 1.11229 0.0
26 2 -35.3197690098 1.11229 0.0
28 2 -34.0354690098 1.11229 0.0
30 2 -32.7510690098 1.11229 0.0
32 2 -31.4667690098 1.11229 0.0
34 2 -30.1823690098 1.11229 0.0
36 2 -28.8980690098 1.11229 0.0
38 2 -27.6136690098 1.11229 0.0
40 2 -26.3292690098 1.11229 0.0
42 2 -25.0449690098 1.11229 0.0
44 2 -23.7605690098 1.11229 0.0
46 2 -22.4762690098 1.11229 0.0
48 2 -21.1918690098 1.11229 0.0
50 2 -19.9075690098 1.11229 0.0
52 2 -18.6231690098 1.11229 0.0
54 2 -17.3387690098 1.11229 0.0
56 2 -16.0544690098 1.11229 0.0
58 2 -14.7700690098 1.11229 0.0
60 2 -13.4857690098 1.11229 0.0
62 2 -12.2013690098 1.11229 0.0
64 2 -10.9170690098 1.11229 0.0
66 2 -9.6326690098 1.11229 0.0
68 2 -8.3482690098 1.11229 0.0
70 2 -7.0639690098 1.11229 0.0
72 2 -5.7795690098 1.11229 0.0
74 2 -4.4952690098 1.11229 0.0
76 2 -3.2108690098 1.11229 0.0
78 2 -1.9265690098 1.11229 0.0
80 2 -0.6421690098 1.11229 0.0
81 2 -51.3742690098 2.22457 0.0
83 2 -50.0899090098 2.22457 0.0
85 2 -48.8055590098 2.22457 0.0
87 2 -47.5211990098 2.22457 0.0
89 2 -46.2368390098 2.22457 0.0
91 2 -44.9524890098 2.22457 0.0
93 2 -43.6681290098 2.22457 0.0
95 2 -42.3837690098 2.22457 0.0
97 2 -41.0993690098 2.22457 0.0
99 2 -39.8150690098 2.22457 0.0
101 2 -38.5306690098 2.22457 0.0
103 2 -37.2463690098 2.22457 0.0
105 2 -35.9619690098 2.22457 0.0
107 2 -34.6776690098 2.22457 0.0
109 2 -33.3932690098 2.22457 0.0
111 2 -32.1088690098 2.22457 0.0
113 2 -30.8245690098 2.22457 0.0
115 2 -29.5401690098 2.22457 0.0
117 2 -28.2558690098 2.22457 0.0
119 2 -26.9714690098 2.22457 0.0
121 2 -25.6871690098 2.22457 0.0
123 2 -24.4027690098 2.22457 0.0
125 2 -23.1184690098 2.22457 0.0
127 2 -21.8340690098 2.22457 0.0
129 2 -20.5496690098 2.22457 0.0
131 2 -19.2653690098 2.22457 0.0
133 2 -17.9809690098 2.22457 0.0
135 2 -16.6966690098 2.22457 0.0
137 2 -15.4122690098 2.22457 0.0
139 2 -14.1279690098 2.22457 0.0
141 2 -12.8435690098 2.22457 0.0
143 2 -11.5591690098 2.22457 0.0
145 2 -10.2748690098 2.22457 0.0
147 2 -8.9904690098 2.22457 0.0
149 2 -7.7061690098 2.22457 0.0
151 2 -6.4217690098 2.22457 0.0
153 2 -5.1374690098 2.22457 0.0
155 2 -3.8530690098 2.22457 0.0
157 2 -2.5686690098 2.22457 0.0
159 2 -1.2843690098 2.22457 0.0
124 1 -51.1878520098 3.28287 0.0
126 1 -49.9545390098 3.31442 0.0
205 1 -48.8200190098 3.40036 0.0
304 1 -47.6991090098 3.2366 0.0
228 1 -41.9121790098 3.36455 0.0
232 1 -40.7980690098 3.40894 0.0
319 1 -39.4182690098 3.26016 0.0
238 1 -38.3864690098 3.53528 0.0
160 1 -31.9920690098 3.55799 0.0
240 1 -29.0036690098 3.42694 0.0
176 1 -7.2550690098 3.51943 0.0
255 1 -5.9817690098 3.3802 0.0
172 1 -3.3602690098 3.38139 0.0
253 1 -2.2688690098 3.31083 0.0
108 1 -0.9177690098 3.39211 0.0
189 1 -50.6342570098 4.25842 0.0
204 1 -48.1235590098 4.22977 0.0
150 1 -43.4229590098 3.95814 0.0
162 1 -40.1876690098 4.16373 0.0
252 1 -37.2694690098 3.64321 0.0
82 1 -36.1926690098 3.62304 0.0
234 1 -34.8132690098 3.7935 0.0
161 1 -33.2571690098 3.67906 0.0
195 1 -21.6244690098 3.91253 0.0
90 1 -16.0011690098 3.66489 0.0
177 1 -14.6654690098 3.73785 0.0
173 1 -12.5695690098 3.94862 0.0
175 1 -10.7998690098 3.67934 0.0
110 1 -9.2674690098 3.99311 0.0
156 1 -42.4400790098 4.38104 0.0
166 1 -25.0598690098 4.5179 0.0
249 1 -19.6733690098 4.90055 0.0
100 1 -17.9507690098 4.86651 0.0
210 1 -5.0380690098 4.36891 0.0
207 1 -48.7410890098 5.10018 0.0
211 1 -47.5906090098 5.16331 0.0
138 1 -46.4222090098 5.18399 0.0
311 1 -43.1372990098 5.29598 0.0
239 1 -29.3540690098 5.32852 0.0
187 1 -16.9089690098 5.72747 0.0
167 1 -9.7005690098 5.22397 0.0
197 1 -50.5217410098 5.86464 0.0
199 1 -49.4663190098 5.96145 0.0
209 1 -48.2891590098 6.06974 0.0
132 1 -47.2312390098 6.16278 0.0
212 1 -46.1626690098 6.27403 0.0
146 1 -45.1505990098 6.1602 0.0
165 1 -42.6507090098 6.18948 0.0
170 1 -20.9849690098 5.78693 0.0
254 1 -14.4462690098 6.13884 0.0
98 1 -6.2311690098 6.3211 0.0
96 1 -2.4514690098 6.22791 0.0
122 1 -1.4467690098 5.78649 0.0
116 1 -0.3870690098 6.12564 0.0
120 1 -51.1842410098 7.07949 0.0
203 1 -50.1131590098 6.9087 0.0
202 1 -47.8806590098 7.05455 0.0
235 1 -44.6242590098 7.11778 0.0
158 1 -43.6221190098 6.66242 0.0
169 1 -26.8128690098 6.57287 0.0
163 1 -24.1245690098 6.60112 0.0
134 1 -46.7604090098 7.2025 0.0
142 1 -45.6652290098 7.24973 0.0
188 1 -1.3572690098 7.26156 0.0
168 1 -0.5156690098 7.90118 0.0
287 1 -50.6715550098 8.04691 0.0
215 1 -47.4111890098 8.06809 0.0
217 1 -46.3805090098 8.21984 0.0
154 1 -45.3034790098 8.30037 0.0
283 1 -44.2462190098 8.10349 0.0
314 1 -2.4973690098 8.60571 0.0
86 1 -1.4298690098 8.42095 0.0
250 1 -49.5758890098 8.98645 0.0
223 1 -45.4982690098 9.30654 0.0
152 1 -44.4208790098 9.23287 0.0
302 1 -43.4053490098 8.76553 0.0
206 1 -0.1222690098 8.94266 0.0
104 1 -50.5900880098 9.48068 0.0
329 1 -48.5790290098 9.40628 0.0
136 1 -46.5377090098 9.35966 0.0
267 1 -43.3106990098 9.86856 0.0
330 1 -3.2906690098 9.77547 0.0
397 1 -2.1217690098 9.77899 0.0
179 1 -1.1006690098 9.54368 0.0
379 1 -50.4878380098 10.6433 0.0
372 1 -48.6758990098 10.7039 0.0
393 1 -47.5814990098 10.2924 0.0
325 1 -46.5327790098 10.3958 0.0
181 1 -45.4451890098 10.4181 0.0
183 1 -44.2172090098 10.384 0.0
92 1 -4.5508690098 10.4759 0.0
387 1 -1.3126690098 10.653 0.0
373 1 -0.1272690098 10.0807 0.0
362 1 -51.3149050098 11.2687 0.0
251 1 -47.0659290098 11.3694 0.0
225 1 -46.0297290098 11.3092 0.0
495 1 -43.8918790098 11.4427 0.0
230 1 -43.0185490098 10.8941 0.0
190 1 -11.0315690098 11.3297 0.0
201 1 -6.5555690098 11.1915 0.0
317 1 -3.5364690098 10.9698 0.0
284 1 -2.4697690098 10.842 0.0
366 1 -50.2348490098 11.7151 0.0
241 1 -49.1171790098 11.6703 0.0
191 1 -48.0246490098 11.6015 0.0
214 1 -24.9507690098 12.1274 0.0
299 1 -23.7891690098 11.7382 0.0
194 1 -21.8899690098 11.7692 0.0
280 1 -16.7330690098 12.1794 0.0
307 1 -15.6197690098 11.8003 0.0
297 1 -13.3200690098 11.9948 0.0
365 1 -9.3443690098 11.5891 0.0
171 1 -7.8193690098 11.715 0.0
288 1 -5.0909690098 11.7035 0.0
286 1 -3.9625690098 12.0303 0.0
222 1 -2.9072690098 12.1148 0.0
298 1 -1.7671690098 11.6992 0.0
361 1 -0.7352690098 12.1084 0.0
443 1 -50.8274860098 12.656 0.0
292 1 -49.6800290098 12.6441 0.0
236 1 -48.4816490098 12.5983 0.0
367 1 -47.3279990098 12.5887 0.0
310 1 -46.2490290098 12.3831 0.0
106 1 -45.1112090098 12.4408 0.0
318 1 -43.6937190098 12.5143 0.0
84 1 -41.4928490098 12.7749 0.0
174 1 -31.2600690098 12.762 0.0
301 1 -28.9125690098 12.6859 0.0
272 1 -27.5734690098 12.8948 0.0
296 1 -26.4638690098 12.504 0.0
289 1 -22.6450690098 12.6082 0.0
277 1 -20.9373690098 12.5626 0.0
315 1 -19.8212690098 12.6452 0.0
200 1 -17.9335690098 12.2723 0.0
429 1 -14.4566690098 12.2828 0.0
300 1 -11.5160690098 12.4826 0.0
273 1 -10.3748690098 12.4472 0.0
369 1 -8.3440690098 12.6827 0.0
293 1 -6.9849690098 12.5161 0.0
291 1 -5.7853690098 12.5661 0.0
354 1 -4.7197690098 12.8253 0.0
363 1 -1.7270690098 12.7523 0.0
440 1 -48.8958490098 13.5604 0.0
523 1 -47.7647490098 13.6007 0.0
383 1 -46.4152790098 13.502 0.0
384 1 -44.2640790098 13.3072 0.0
221 1 -42.5106490098 13.0028 0.0
193 1 -40.5424690098 13.405 0.0
220 1 -32.6939690098 13.0711 0.0
305 1 -30.0142690098 13.2926 0.0
268 1 -25.2496690098 13.3263 0.0
279 1 -24.0062690098 13.6539 0.0
186 1 -21.4426690098 13.5964 0.0
295 1 -18.7649690098 13.102 0.0
196 1 -17.2191690098 13.2549 0.0
350 1 -15.2513690098 13.1794 0.0
348 1 -13.6127690098 13.0964 0.0
303 1 -12.4069690098 13.1833 0.0
274 1 -9.4230690098 12.9826 0.0
164 1 -7.6752690098 13.6371 0.0
275 1 -6.5562690098 13.5937 0.0
430 1 -5.4470690098 13.6568 0.0
431 1 -3.7328690098 13.1509 0.0
355 1 -2.6892690098 13.2127 0.0
294 1 -0.7140690098 13.2016 0.0
358 1 -51.0345460098 13.7036 0.0
441 1 -49.9589190098 13.6808 0.0
380 1 -45.2973590098 13.6851 0.0
94 1 -44.1309690098 14.3573 0.0
245 1 -43.1168590098 13.8763 0.0
192 1 -41.7387790098 13.7552 0.0
312 1 -39.5384690098 14.0502 0.0
218 1 -37.7721690098 13.8907 0.0
332 1 -36.6856690098 14.2964 0.0
331 1 -35.5071690098 13.7634 0.0
247 1 -33.7269690098 13.9096 0.0
327 1 -32.4537690098 14.2791 0.0
351 1 -31.1995690098 14.055 0.0
414 1 -28.5115690098 13.9478 0.0
285 1 -26.5977690098 13.8828 0.0
556 1 -22.8077690098 13.7559 0.0
349 1 -20.2415690098 14.1465 0.0
401 1 -17.9962690098 14.229 0.0
185 1 -16.2202690098 13.7648 0.0
494 1 -14.4153690098 14.0303 0.0
505 1 -13.2889690098 14.2516 0.0
281 1 -12.1437690098 14.3177 0.0
306 1 -11.2034690098 13.7278 0.0
504 1 -10.1358690098 13.8493 0.0
359 1 -4.4705690098 14.1903 0.0
278 1 -3.2653690098 14.2066 0.0
282 1 -1.7386690098 13.8568 0.0
439 1 -50.3838880098 14.6602 0.0
521 1 -49.1439390098 14.6103 0.0
364 1 -48.0712090098 14.7202 0.0
447 1 -47.0350590098 14.4623 0.0
375 1 -45.8419290098 14.6588 0.0
457 1 -42.6966390098 14.8791 0.0
411 1 -41.6485590098 14.8616 0.0
415 1 -40.5877690098 14.4682 0.0
243 1 -38.6135690098 14.6944 0.0
316 1 -34.5110690098 14.7793 0.0
216 1 -30.0353690098 14.4256 0.0
403 1 -27.5734690098 14.5405 0.0
326 1 -25.7881690098 14.9482 0.0
409 1 -24.8185690098 14.4547 0.0
470 1 -23.5978690098 14.8032 0.0
321 1 -21.8604690098 14.641 0.0
406 1 -19.1268690098 14.445 0.0
416 1 -16.9842690098 14.6909 0.0
270 1 -15.3171690098 14.7569 0.0
427 1 -11.1957690098 14.8544 0.0
269 1 -10.1279690098 15.1038 0.0
506 1 -9.2250690098 14.4841 0.0
353 1 -8.1568690098 14.6616 0.0
352 1 -7.0676690098 14.5991 0.0
587 1 -5.9226690098 14.5994 0.0
511 1 -2.3125690098 14.7817 0.0
432 1 -1.2128690098 14.7803 0.0
433 1 -0.1860690098 14.6568 0.0
360 1 -50.8530940098 15.7284 0.0
438 1 -49.7448990098 15.6222 0.0
519 1 -48.7010590098 15.6757 0.0
522 1 -47.6651490098 15.8104 0.0
525 1 -46.6741490098 15.4906 0.0
442 1 -45.6945890098 15.7862 0.0
371 1 -44.8059290098 15.183 0.0
377 1 -43.7112790098 15.3591 0.0
382 1 -42.2014590098 15.7952 0.0
246 1 -40.7978690098 15.5078 0.0
405 1 -39.7546690098 15.1803 0.0
333 1 -37.6462690098 15.2934 0.0
395 1 -36.5650690098 15.4575 0.0
244 1 -35.5275690098 15.275 0.0
391 1 -33.1311690098 15.3717 0.0
399 1 -31.0680690098 15.3479 0.0
398 1 -29.5632690098 15.468 0.0
320 1 -28.4410690098 15.3421 0.0
323 1 -26.8282690098 15.3981 0.0
476 1 -24.6656690098 15.5634 0.0
400 1 -22.6126690098 15.5093 0.0
404 1 -20.8379690098 15.185 0.0
328 1 -19.5597690098 15.4889 0.0
479 1 -18.3201690098 15.3802 0.0
408 1 -16.1373690098 15.6529 0.0
334 1 -14.3659690098 15.29 0.0
491 1 -13.2906690098 15.3812 0.0
499 1 -12.1373690098 15.5672 0.0
503 1 -8.7468690098 15.5631 0.0
501 1 -7.6295690098 15.6044 0.0
502 1 -6.4055690098 15.5078 0.0
428 1 -5.0229690098 15.2149 0.0
509 1 -3.8642690098 15.1512 0.0
589 1 -2.8536690098 15.7318 0.0
510 1 -1.7346690098 15.7222 0.0
357 1 -0.5728690098 15.6863 0.0
445 1 -44.3448790098 16.3737 0.0
374 1 -43.2324890098 16.3585 0.0
385 1 -40.0031690098 16.2367 0.0
248 1 -38.7645690098 15.9971 0.0
308 1 -37.5572690098 16.4322 0.0
471 1 -35.2853690098 16.4357 0.0
465 1 -34.2857690098 15.8817 0.0
461 1 -33.3400690098 16.4804 0.0
386 1 -31.9743690098 16.0716 0.0
390 1 -30.3986690098 16.3541 0.0
477 1 -27.4842690098 16.327 0.0
554 1 -23.5924690098 16.1191 0.0
322 1 -21.5787690098 16.0339 0.0
560 1 -20.3777690098 16.3278 0.0
561 1 -18.2244690098 16.5125 0.0
480 1 -17.1856690098 16.061 0.0
483 1 -15.1766690098 16.2516 0.0
486 1 -13.8936690098 16.3426 0.0
271 1 -11.1112690098 15.9825 0.0
412 1 -10.0054690098 16.1894 0.0
581 1 -6.7751690098 16.5054 0.0
583 1 -5.5973690098 16.3093 0.0
507 1 -4.4180690098 16.1885 0.0
435 1 -51.3482728098 16.7068 0.0
437 1 -50.2098690098 16.7085 0.0
520 1 -49.1338790098 16.6992 0.0
524 1 -48.0550490098 16.8016 0.0
598 1 -46.9337190098 16.6077 0.0
526 1 -45.8735490098 16.8194 0.0
370 1 -42.2314190098 16.815 0.0
381 1 -41.1678690098 16.6962 0.0
451 1 -39.1669690098 17.0918 0.0
458 1 -36.4376690098 16.7215 0.0
388 1 -32.5618690098 17.2502 0.0
466 1 -31.4028690098 17.1576 0.0
547 1 -29.0220690098 16.6367 0.0
553 1 -26.4836690098 16.9088 0.0
475 1 -25.2532690098 16.5908 0.0
551 1 -24.1115690098 17.1099 0.0
631 1 -22.7603690098 16.876 0.0
324 1 -21.3244690098 17.1216 0.0
559 1 -19.2889690098 16.8797 0.0
481 1 -17.3019690098 17.1914 0.0
643 1 -16.1529690098 16.8403 0.0
563 1 -14.6219690098 17.2278 0.0
413 1 -12.7544690098 16.5936 0.0
410 1 -11.7157690098 16.9554 0.0
571 1 -10.6175690098 17.1696 0.0
426 1 -8.9911690098 16.6412 0.0
493 1 -7.8888690098 16.6944 0.0
584 1 -4.9225690098 17.2074 0.0
512 1 -3.3989690098 16.6434 0.0
514 1 -2.2852690098 16.6589 0.0
356 1 -1.0399690098 16.669 0.0
518 1 -50.6643020098 17.627 0.0
517 1 -49.4647390098 17.7274 0.0
681 1 -48.3003590098 17.8823 0.0
599 1 -47.1443490098 17.6841 0.0
446 1 -45.8819490098 17.9012 0.0
444 1 -44.8504590098 17.3592 0.0
449 1 -43.6500190098 17.4765 0.0
368 1 -42.6083290098 17.7842 0.0
448 1 -41.4418190098 17.7015 0.0
453 1 -40.2145690098 17.3679 0.0
531 1 -38.3135690098 17.7251 0.0
376 1 -37.1881690098 17.6467 0.0
460 1 -35.2006690098 17.5252 0.0
463 1 -34.1283690098 17.3253 0.0
242 1 -30.3327690098 17.5139 0.0
625 1 -29.2984690098 17.8628 0.0
467 1 -28.0491690098 17.3829 0.0
392 1 -25.0178690098 17.8303 0.0
473 1 -23.3109690098 17.9611 0.0
555 1 -22.1971690098 17.8997 0.0
478 1 -20.3509690098 17.6793 0.0
566 1 -15.5717690098 17.8162 0.0
407 1 -13.5186690098 17.3966 0.0
567 1 -12.4686690098 17.8369 0.0
573 1 -9.5945690098 17.56 0.0
497 1 -8.4790690098 17.6155 0.0
498 1 -7.4197690098 17.8696 0.0
580 1 -6.0298690098 17.3287 0.0
661 1 -3.8818690098 17.6218 0.0
586 1 -2.7633690098 17.637 0.0
513 1 -1.5695690098 17.6282 0.0
276 1 -0.4773690098 17.7225 0.0
436 1 -51.1664690098 18.6207 0.0
597 1 -50.0573990098 18.6591 0.0
528 1 -46.5179490098 18.687 0.0
609 1 -44.2594190098 18.4409 0.0
527 1 -43.1486190098 18.6474 0.0
529 1 -41.9597590098 18.5686 0.0
616 1 -40.8553690098 18.5455 0.0
452 1 -39.4195690098 18.3525 0.0
459 1 -36.1805690098 18.0085 0.0
456 1 -34.8033690098 18.5451 0.0
539 1 -33.6583690098 18.3404 0.0
464 1 -32.3277690098 18.3396 0.0
543 1 -31.1523690098 18.3042 0.0
394 1 -27.2452690098 18.1639 0.0
396 1 -26.0946690098 18.1368 0.0
558 1 -21.0973690098 18.5088 0.0
640 1 -19.3077690098 18.1659 0.0
562 1 -18.1653690098 18.1425 0.0
717 1 -17.0836690098 18.3667 0.0
402 1 -14.2630690098 18.2879 0.0
485 1 -11.3768690098 17.9931 0.0
488 1 -10.3647690098 18.3804 0.0
492 1 -9.3185690098 18.6327 0.0
500 1 -6.4587690098 18.4105 0.0
582 1 -5.3922690098 18.2042 0.0
508 1 -3.2548690098 18.6864 0.0
591 1 -2.1453690098 18.5537 0.0
434 1 -0.9059690098 18.6928 0.0
679 1 -48.9896190098 18.7963 0.0
605 1 -47.6310990098 18.731 0.0
607 1 -45.2996190098 18.8076 0.0
533 1 -39.6378690098 19.4083 0.0
450 1 -38.4025690098 18.9641 0.0
378 1 -37.3140690098 18.7908 0.0
534 1 -35.8524690098 19.1849 0.0
462 1 -32.8588690098 19.3488 0.0
545 1 -31.7543690098 19.3144 0.0
546 1 -30.0798690098 18.7432 0.0
468 1 -28.7067690098 19.0235 0.0
548 1 -27.2823690098 19.2874 0.0
632 1 -25.7832690098 19.2889 0.0
469 1 -24.3709690098 18.7412 0.0
474 1 -23.2272690098 19.0996 0.0
633 1 -22.0917690098 19.1184 0.0
639 1 -20.0131690098 19.1016 0.0
641 1 -17.9085690098 19.3448 0.0
564 1 -16.0608690098 18.8847 0.0
484 1 -14.9654690098 19.1911 0.0
487 1 -13.2152690098 18.9151 0.0
569 1 -12.0651690098 18.8515 0.0
490 1 -10.9838690098 19.2784 0.0
496 1 -8.2115690098 18.7474 0.0
577 1 -7.2152690098 19.2291 0.0
665 1 -5.8531690098 19.3541 0.0
585 1 -4.3558690098 18.7099 0.0
596 1 -50.5176170098 19.7611 0.0
680 1 -49.4358090098 19.759 0.0
600 1 -48.2367990098 19.6157 0.0
603 1 -46.9940190098 19.6171 0.0
687 1 -45.9143590098 19.6229 0.0
689 1 -44.3006590098 19.5074 0.0
530 1 -43.2241790098 19.7175 0.0
614 1 -42.0580490098 19.7388 0.0
613 1 -40.9699690098 19.6693 0.0
455 1 -37.9091690098 19.9143 0.0
535 1 -36.8675690098 19.8808 0.0
536 1 -34.8885690098 19.8559 0.0
541 1 -33.8996690098 19.484 0.0
626 1 -30.6259690098 19.8595 0.0
627 1 -29.5067690098 19.9056 0.0
628 1 -28.1464690098 20.0692 0.0
549 1 -25.0803690098 20.1319 0.0
637 1 -21.1492690098 19.7692 0.0
482 1 -18.9947690098 19.659 0.0
645 1 -16.8362690098 19.7223 0.0
565 1 -13.9878690098 19.7057 0.0
568 1 -12.9629690098 20.1407 0.0
666 1 -11.8750690098 19.9636 0.0
489 1 -9.9882690098 19.7169 0.0
575 1 -8.8839690098 19.644 0.0
576 1 -7.9221690098 20.0746 0.0
668 1 -4.8865690098 19.9517 0.0
588 1 -3.7888690098 19.6793 0.0
595 1 -2.6510690098 19.5778 0.0
515 1 -1.5393690098 19.5638 0.0
592 1 -0.2708690098 19.5567 0.0
677 1 -51.0928850098 20.6606 0.0
684 1 -49.8799790098 20.6899 0.0
683 1 -48.5393890098 20.6495 0.0
601 1 -47.4543490098 20.565 0.0
688 1 -46.2659690098 20.6042 0.0
696 1 -44.9865190098 20.482 0.0
608 1 -43.8616790098 20.6674 0.0
532 1 -42.7802290098 20.6415 0.0
704 1 -41.3891090098 20.7383 0.0
611 1 -40.2398690098 20.5301 0.0
454 1 -39.0984690098 20.4509 0.0
617 1 -36.0217690098 20.5729 0.0
542 1 -33.5019690098 20.6144 0.0
544 1 -32.4065690098 20.3694 0.0
550 1 -26.6358690098 20.2582 0.0
472 1 -23.9372690098 20.2469 0.0
713 1 -22.7539690098 20.1593 0.0
638 1 -19.9032690098 20.2969 0.0
648 1 -17.2267690098 20.7606 0.0
647 1 -15.0180690098 20.3246 0.0
570 1 -14.0099690098 20.8443 0.0
574 1 -10.8264690098 20.4126 0.0
579 1 -6.8010690098 20.2787 0.0
667 1 -5.8831690098 20.841 0.0
590 1 -4.1826690098 20.7929 0.0
593 1 -3.1162690098 20.5799 0.0
673 1 -2.0301690098 20.5875 0.0
516 1 -0.8804690098 20.5008 0.0
693 1 -49.2275890098 21.5311 0.0
606 1 -46.8801890098 21.5599 0.0
538 1 -38.8244690098 21.4647 0.0
615 1 -37.7505690098 20.9355 0.0
537 1 -36.8778690098 21.5379 0.0
620 1 -34.8708690098 21.1666 0.0
621 1 -32.6865690098 21.4558 0.0
624 1 -31.5538690098 21.1658 0.0
705 1 -29.7769690098 21.1478 0.0
630 1 -28.7199690098 21.4435 0.0
629 1 -27.3592690098 21.166 0.0
552 1 -25.7748690098 21.3334 0.0
634 1 -24.6218690098 21.1879 0.0
635 1 -23.4414690098 21.3163 0.0
636 1 -21.7073690098 20.8897 0.0
557 1 -20.6613690098 21.2505 0.0
644 1 -19.4147690098 21.4174 0.0
649 1 -18.3157690098 21.0736 0.0
652 1 -16.0126690098 20.8621 0.0
656 1 -13.0635690098 21.5144 0.0
651 1 -11.9563690098 21.1239 0.0
572 1 -9.9157690098 21.0707 0.0
653 1 -8.7538690098 20.8768 0.0
659 1 -7.5272690098 21.2304 0.0
678 1 -5.0437690098 21.5599 0.0
682 1 -1.4019690098 21.4653 0.0
694 1 -50.4615530098 21.609 0.0
602 1 -47.9836790098 21.6292 0.0
695 1 -45.8056090098 21.5926 0.0
618 1 -44.5964590098 21.604 0.0
610 1 -43.4132190098 21.6119 0.0
612 1 -42.3203690098 21.6245 0.0
619 1 -41.0244690098 21.7539 0.0
701 1 -39.9041690098 21.5979 0.0
540 1 -35.8030690098 21.9217 0.0
622 1 -33.9162690098 21.7077 0.0
718 1 -29.5807690098 22.2767 0.0
642 1 -22.3824690098 21.8215 0.0
646 1 -21.3191690098 22.217 0.0
664 1 -17.5851690098 21.9528 0.0
658 1 -15.0773690098 22.1345 0.0
655 1 -13.9693690098 22.14 0.0
663 1 -11.7536690098 22.2941 0.0
660 1 -10.8928690098 21.5974 0.0
578 1 -8.4186690098 21.9378 0.0
669 1 -6.4159690098 21.807 0.0
686 1 -3.5430690098 21.7412 0.0
671 1 -2.4694690098 21.5935 0.0
676 1 -0.2847690098 21.6243 0.0
604 1 -51.0829040098 22.563 0.0
698 1 -49.8543890098 22.5857 0.0
700 1 -48.6228890098 22.5625 0.0
691 1 -47.5371890098 22.5775 0.0
697 1 -46.2213690098 22.5408 0.0
699 1 -45.1144290098 22.5678 0.0
706 1 -43.9635890098 22.6175 0.0
703 1 -41.7612290098 22.7166 0.0
702 1 -40.4830690098 22.7129 0.0
710 1 -39.3554690098 22.6038 0.0
708 1 -38.0130690098 22.3072 0.0
623 1 -36.7528690098 22.6512 0.0
712 1 -34.7203690098 22.5485 0.0
714 1 -32.7687690098 22.6373 0.0
716 1 -31.7244690098 22.3232 0.0
707 1 -30.6287690098 22.4915 0.0
711 1 -28.0578690098 22.4528 0.0
709 1 -26.8627690098 22.5302 0.0
720 1 -25.6360690098 22.4611 0.0
715 1 -24.4205690098 22.3441 0.0
719 1 -23.3062690098 22.5613 0.0
650 1 -19.8870690098 22.5231 0.0
657 1 -18.6293690098 22.3935 0.0
654 1 -16.3096690098 22.3175 0.0
662 1 -12.8997690098 22.6036 0.0
672 1 -10.2168690098 22.4666 0.0
670 1 -9.1985690098 22.6428 0.0
675 1 -7.2864690098 22.4636 0.0
674 1 -5.5694690098 22.6636 0.0
594 1 -4.2267690098 22.7029 0.0
692 1 -2.9610690098 22.6983 0.0
690 1 -1.8637690098 22.5196 0.0
685 1 -0.7406690098 22.5994 0.0
721 3 -51.3742690098 23.6697 0.0
723 3 -50.0899090098 23.6697 0.0
725 3 -48.8055590098 23.6697 0.0
727 3 -47.5211990098 23.6697 0.0
729 3 -46.2368390098 23.6697 0.0
731 3 -44.9524890098 23.6697 0.0
733 3 -43.6681290098 23.6697 0.0
735 3 -42.3837690098 23.6697 0.0
737 3 -41.0993690098 23.6697 0.0
739 3 -39.8150690098 23.6697 0.0
741 3 -38.5306690098 23.6697 0.0
743 3 -37.2463690098 23.6697 0.0
745 3 -35.9619690098 23.6697 0.0
747 3 -34.6776690098 23.6697 0.0
749 3 -33.3932690098 23.6697 0.0
751 3 -32.1088690098 23.6697 0.0
753 3 -30.8245690098 23.6697 0.0
755 3 -29.5401690098 23.6697 0.0
757 3 -28.2558690098 23.6697 0.0
759 3 -26.9714690098 23.6697 0.0
761 3 -25.6871690098 23.6697 0.0
763 3 -24.4027690098 23.6697 0.0
765 3 -23.1184690098 23.6697 0.0
767 3 -21.8340690098 23.6697 0.0
769 3 -20.5496690098 23.6697 0.0
771 3 -19.2653690098 23.6697 0.0
773 3 -17.9809690098 23.6697 0.0
775 3 -16.6966690098 23.6697 0.0
777 3 -15.4122690098 23.6697 0.0
779 3 -14.1279690098 23.6697 0.0
781 3 -12.8435690098 23.6697 0.0
783 3 -11.5591690098 23.6697 0.0
785 3 -10.2748690098 23.6697 0.0
787 3 -8.9904690098 23.6697 0.0
789 3 -7.7061690098 23.6697 0.0
791 3 -6.4217690098 23.6697 0.0
793 3 -5.1374690098 23.6697 0.0
795 3 -3.8530690098 23.6697 0.0
797 3 -2.5686690098 23.6697 0.0
799 3 -1.2843690098 23.6697 0.0
722 3 -50.7320910098 24.782 0.0
724 3 -49.4477290098 24.782 0.0
726 3 -48.1633790098 24.782 0.0
728 3 -46.8790190098 24.782 0.0
730 3 -45.5946590098 24.782 0.0
732 3 -44.3103090098 24.782 0.0
734 3 -43.0259490098 24.782 0.0
736 3 -41.7415890098 24.782 0.0
738 3 -40.4572690098 24.782 0.0
740 3 -39.1728690098 24.782 0.0
742 3 -37.8885690098 24.782 0.0
744 3 -36.6041690098 24.782 0.0
746 3 -35.3197690098 24.782 0.0
748 3 -34.0354690098 24.782 0.0
750 3 -32.7510690098 24.782 0.0
752 3 -31.4667690098 24.782 0.0
754 3 -30.1823690098 24.782 0.0
756 3 -28.8980690098 24.782 0.0
758 3 -27.6136690098 24.782 0.0
760 3 -26.3292690098 24.782 0.0
762 3 -25.0449690098 24.782 0.0
764 3 -23.7605690098 24.782 0.0
766 3 -22.4762690098 24.782 0.0
768 3 -21.1918690098 24.782 0.0
770 3 -19.9075690098 24.782 0.0
772 3 -18.6231690098 24.782 0.0
774 3 -17.3387690098 24.782 0.0
776 3 -16.0544690098 24.782 0.0
778 3 -14.7700690098 24.782 0.0
780 3 -13.4857690098 24.782 0.0
782 3 -12.2013690098 24.782 0.0
784 3 -10.9170690098 24.782 0.0
786 3 -9.6326690098 24.782 0.0
788 3 -8.3482690098 24.782 0.0
790 3 -7.0639690098 24.782 0.0
792 3 -5.7795690098 24.782 0.0
794 3 -4.4952690098 24.782 0.0
796 3 -3.2108690098 24.782 0.0
798 3 -1.9265690098 24.782 0.0
800 3 -0.6421690098 24.782 0.0
801 3 -51.3742690098 25.8943 0.0
802 3 -50.0899090098 25.8943 0.0
803 3 -48.8055590098 25.8943 0.0
425 3 -47.5211990098 25.8943 0.0
424 3 -46.2368390098 25.8943 0.0
423 3 -44.9524890098 25.8943 0.0
422 3 -43.6681290098 25.8943 0.0
421 3 -42.3837690098 25.8943 0.0
420 3 -41.0993690098 25.8943 0.0
419 3 -39.8150690098 25.8943 0.0
418 3 -38.5306690098 25.8943 0.0
417 3 -37.2463690098 25.8943 0.0
347 3 -35.9619690098 25.8943 0.0
346 3 -34.6776690098 25.8943 0.0
345 3 -33.3932690098 25.8943 0.0
344 3 -32.1088690098 25.8943 0.0
343 3 -30.8245690098 25.8943 0.0
342 3 -29.5401690098 25.8943 0.0
341 3 -28.2558690098 25.8943 0.0
340 3 -26.9714690098 25.8943 0.0
339 3 -25.6871690098 25.8943 0.0
338 3 -24.4027690098 25.8943 0.0
337 3 -23.1184690098 25.8943 0.0
336 3 -21.8340690098 25.8943 0.0
335 3 -20.5496690098 25.8943 0.0
266 3 -19.2653690098 25.8943 0.0
265 3 -17.9809690098 25.8943 0.0
264 3 -16.6966690098 25.8943 0.0
263 3 -15.4122690098 25.8943 0.0
262 3 -14.1279690098 25.8943 0.0
261 3 -12.8435690098 25.8943 0.0
260 3 -11.5591690098 25.8943 0.0
259 3 -10.2748690098 25.8943 0.0
258 3 -8.9904690098 25.8943 0.0
257 3 -7.7061690098 25.8943 0.0
256 3 -6.4217690098 25.8943 0.0
184 3 -5.1374690098 25.8943 0.0
182 3 -3.8530690098 25.8943 0.0
180 3 -2.5686690098 25.8943 0.0
178 3 -1.2843690098 25.8943 0.0
804 2 0.0 0.0 0.0
806 2 1.28436 0.0 0.0
808 2 2.56871 0.0 0.0
810 2 3.85307 0.0 0.0
812 2 5.13743 0.0 0.0
814 2 6.42178 0.0 0.0
816 2 7.70614 0.0 0.0
818 2 8.9905 0.0 0.0
820 2 10.2749 0.0 0.0
822 2 11.5592 0.0 0.0
824 2 12.8436 0.0 0.0
826 2 14.1279 0.0 0.0
828 2 15.4123 0.0 0.0
830 2 16.6966 0.0 0.0
832 2 17.981 0.0 0.0
834 2 19.2654 0.0 0.0
836 2 20.5497 0.0 0.0
838 2 21.8341 0.0 0.0
840 2 23.1184 0.0 0.0
842 2 24.4028 0.0 0.0
844 2 25.6871 0.0 0.0
846 2 26.9715 0.0 0.0
848 2 28.2558 0.0 0.0
850 2 29.5402 0.0 0.0
852 2 30.8246 0.0 0.0
854 2 32.1089 0.0 0.0
856 2 33.3933 0.0 0.0
858 2 34.6776 0.0 0.0
860 2 35.962 0.0 0.0
862 2 37.2463 0.0 0.0
864 2 38.5307 0.0 0.0
866 2 39.8151 0.0 0.0
868 2 41.0994 0.0 0.0
870 2 42.3838 0.0 0.0
872 2 43.6681 0.0 0.0
874 2 44.9525 0.0 0.0
876 2 46.2368 0.0 0.0
878 2 47.5212 0.0 0.0
880 2 48.8056 0.0 0.0
882 2 50.0899 0.0 0.0
805 2 0.642178 1.11229 0.0
807 2 1.92654 1.11229 0.0
809 2 3.21089 1.11229 0.0
811 2 4.49525 1.11229 0.0
813 2 5.77961 1.11229 0.0
815 2 7.06396 1.11229 0.0
817 2 8.34832 1.11229 0.0
819 2 9.63268 1.11229 0.0
821 2 10.917 1.11229 0.0
823 2 12.2014 1.11229 0.0
825 2 13.4857 1.11229 0.0
827 2 14.7701 1.11229 0.0
829 2 16.0545 1.11229 0.0
831 2 17.3388 1.11229 0.0
833 2 18.6232 1.11229 0.0
835 2 19.9075 1.11229 0.0
837 2 21.1919 1.11229 0.0
839 2 22.4762 1.11229 0.0
841 2 23.7606 1.11229 0.0
843 2 25.045 1.11229 0.0
845 2 26.3293 1.11229 0.0
847 2 27.6137 1.11229 0.0
849 2 28.898 1.11229 0.0
851 2 30.1824 1.11229 0.0
853 2 31.4667 1.11229 0.0
855 2 32.7511 1.11229 0.0
857 2 34.0355 1.11229 0.0
859 2 35.3198 1.11229 0.0
861 2 36.6042 1.11229 0.0
863 2 37.8885 1.11229 0.0
865 2 39.1729 1.11229 0.0
867 2 40.4572 1.11229 0.0
869 2 41.7416 1.11229 0.0
871 2 43.026 1.11229 0.0
873 2 44.3103 1.11229 0.0
875 2 45.5947 1.11229 0.0
877 2 46.879 1.11229 0.0
879 2 48.1634 1.11229 0.0
881 2 49.4477 1.11229 0.0
883 2 50.7321 1.11229 0.0
884 2 0.0 2.22457 0.0
886 2 1.28436 2.22457 0.0
888 2 2.56871 2.22457 0.0
890 2 3.85307 2.22457 0.0
892 2 5.13743 2.22457 0.0
894 2 6.42178 2.22457 0.0
896 2 7.70614 2.22457 0.0
898 2 8.9905 2.22457 0.0
900 2 10.2749 2.22457 0.0
902 2 11.5592 2.22457 0.0
904 2 12.8436 2.22457 0.0
906 2 14.1279 2.22457 0.0
908 2 15.4123 2.22457 0.0
910 2 16.6966 2.22457 0.0
912 2 17.981 2.22457 0.0
914 2 19.2654 2.22457 0.0
916 2 20.5497 2.22457 0.0
918 2 21.8341 2.22457 0.0
920 2 23.1184 2.22457 0.0
922 2 24.4028 2.22457 0.0
924 2 25.6871 2.22457 0.0
926 2 26.9715 2.22457 0.0
928 2 28.2558 2.22457 0.0
930 2 29.5402 2.22457 0.0
932 2 30.8246 2.22457 0.0
934 2 32.1089 2.22457 0.0
936 2 33.3933 2.22457 0.0
938 2 34.6776 2.22457 0.0
940 2 35.962 2.22457 0.0
942 2 37.2463 2.22457 0.0
944 2 38.5307 2.22457 0.0
946 2 39.8151 2.22457 0.0
948 2 41.0994 2.22457 0.0
950 2 42.3838 2.22457 0.0
952 2 43.6681 2.22457 0.0
954 2 44.9525 2.22457 0.0
956 2 46.2368 2.22457 0.0
958 2 47.5212 2.22457 0.0
960 2 48.8056 2.22457 0.0
962 2 50.0899 2.22457 0.0
927 1 0.186417 3.28287 0.0
929 1 1.41973 3.31442 0.0
1008 1 2.55425 3.40036 0.0
1107 1 3.67516 3.2366 0.0
1031 1 9.46209 3.36455 0.0
1035 1 10.5762 3.40894 0.0
1122 1 11.956 3.26016 0.0
1041 1 12.9878 3.53528 0.0
963 1 19.3822 3.55799 0.0
1043 1 22.3706 3.42694 0.0
979 1 44.1192 3.51943 0.0
1058 1 45.3925 3.3802 0.0
975 1 48.014 3.38139 0.0
1056 1 49.1054 3.31083 0.0
911 1 50.4565 3.39211 0.0
992 1 0.740012 4.25842 0.0
1007 1 3.25071 4.22977 0.0
953 1 7.95131 3.95814 0.0
965 1 11.1866 4.16373 0.0
1055 1 14.1048 3.64321 0.0
885 1 15.1816 3.62304 0.0
1037 1 16.561 3.7935 0.0
964 1 18.1171 3.67906 0.0
998 1 29.7498 3.91253 0.0
893 1 35.3731 3.66489 0.0
980 1 36.7088 3.73785 0.0
976 1 38.8047 3.94862 0.0
978 1 40.5744 3.67934 0.0
913 1 42.1068 3.99311 0.0
959 1 8.93419 4.38104 0.0
969 1 26.3144 4.5179 0.0
1052 1 31.7009 4.90055 0.0
903 1 33.4235 4.86651 0.0
1013 1 46.3362 4.36891 0.0
1010 1 2.63318 5.10018 0.0
1014 1 3.78366 5.16331 0.0
941 1 4.95206 5.18399 0.0
1114 1 8.23697 5.29598 0.0
1042 1 22.0202 5.32852 0.0
990 1 34.4653 5.72747 0.0
970 1 41.6737 5.22397 0.0
1000 1 0.852528 5.86464 0.0
1002 1 1.90795 5.96145 0.0
1012 1 3.08511 6.06974 0.0
935 1 4.14303 6.16278 0.0
1015 1 5.2116 6.27403 0.0
949 1 6.22367 6.1602 0.0
968 1 8.72356 6.18948 0.0
973 1 30.3893 5.78693 0.0
1057 1 36.928 6.13884 0.0
901 1 45.1431 6.3211 0.0
899 1 48.9228 6.22791 0.0
925 1 49.9275 5.78649 0.0
919 1 50.9872 6.12564 0.0
923 1 0.190028 7.07949 0.0
1006 1 1.26111 6.9087 0.0
1005 1 3.49361 7.05455 0.0
1038 1 6.75001 7.11778 0.0
961 1 7.75215 6.66242 0.0
972 1 24.5614 6.57287 0.0
966 1 27.2497 6.60112 0.0
937 1 4.61386 7.2025 0.0
945 1 5.70904 7.24973 0.0
991 1 50.017 7.26156 0.0
971 1 50.8586 7.90118 0.0