LAMMPS (3 Nov 2022)

# lmp zhushou
# Lu Junyao
# 11.2 拉伸

dimension   3
boundary    s s s
units       metal
atom_style  atomic
neighbor    3.0 bin
neigh_modify every 1 delay 0 check yes
pair_style  eam


region box  block 0 119.295 0 36.15 0 36.15 units box
create_box  1 box
Created orthogonal box = (0 0 0) to (119.295 36.15 36.15)
  1 by 1 by 1 MPI processor grid
lattice fcc     3.615
Lattice spacing in x,y,z = 3.615 3.615 3.615
region Cu block 0 119.295 0 36.15 0 36.15 units box
create_atoms 1 region Cu
Created 13400 atoms
  using lattice units in orthogonal box = (-0.0119295 -0.003615 -0.003615) to (119.30693 36.153615 36.153615)
  create_atoms CPU = 0.001 seconds

pair_coeff * * Cu_u3.eam
Reading eam potential file Cu_u3.eam with DATE: 2007-06-11

region left block INF 0.1 INF INF INF INF units box
group left region left
200 atoms in group left

region right block 119.1 INF INF INF INF INF units box
group right region right
200 atoms in group right

group cu subtract all left right
13000 atoms in group cu


timestep 0.002
thermo 100
thermo_style custom step temp pxx pyy pzz
thermo_modify flush yes


velocity cu create 300 5645354 loop local dist gaussian rot yes
dump mydump1 all atom 10000 atom1.lammpstrj


fix fixnvt cu nvt temp 300.0 300.0 0.2


run 10000
Neighbor list info ...
  update: every = 1 steps, delay = 0 steps, check = yes
  max neighbors/atom: 2000, page size: 100000
  master list distance cutoff = 7.95
  ghost atom cutoff = 7.95
  binsize = 3.975, bins = 31 10 10
  1 neighbor lists, perpetual/occasional/extra = 1 0 0
  (1) pair eam, perpetual
      attributes: half, newton on
      pair build: half/bin/atomonly/newton
      stencil: half/bin/3d
      bin: standard
Per MPI rank memory allocation (min/avg/max) = 8.356 | 8.356 | 8.356 Mbytes
   Step          Temp           Pxx            Pyy            Pzz      
         0   291.04411     -19478.59      -13712.136     -13652.619    
       100   159.10136     -7930.7305     -2740.0493     -2882.3139    
       200   167.44859     -8147.6937     -3945.6166     -4140.5052    
       300   185.57695     -6770.4124     -2727.8439     -2912.4688    
       400   207.88731     -3950.2264      462.22245      457.15594    
       500   225.74049     -4233.1163      179.52622      381.26902    
       600   242.95508     -7692.7702     -3692.5365     -3549.7738    
       700   259.49376     -9769.4964     -6180.4516     -6357.5719    
       800   272.29413     -12199.677     -9213.281      -9360.0982    
       900   285.66058     -9201.3046     -6053.9355     -6236.4065    
      1000   304.96666     -2060.6414      1825.0649      1403.9618    
      1100   300.72026     -1286.7188      2954.9712      3093.8176    
      1200   288.07189     -4499.6531     -324.12975     -406.42595    
      1300   283.86881     -8105.0293     -5360.6262     -5005.4525    
      1400   285.53808     -11793.978     -8684.1505     -8783.4823    
      1500   291.05833     -7958.3379     -4626.1856     -4420.019     
      1600   297.84678     -4110.6678     -620.51921     -92.638614    
      1700   293.97286     -2913.047       696.74698      1075.7028    
      1800   292.07186     -3192.9734      504.63685      578.70348    
      1900   283.48306     -8400.6105     -5024.7755     -5202.391     
      2000   283.76818     -8346.1817     -5218.5174     -5533.0014    
      2100   292.82056     -5131.6347     -982.26958     -1404.2068    
      2200   296.01175     -5516.566      -990.30365     -1571.3372    
      2300   295.08327     -7152.2476     -3409.0353     -4122.404     
      2400   289.69483     -7937.4313     -4433.7291     -4728.3325    
      2500   286.58334     -8194.6098     -4885.3503     -5184.883     
      2600   290.8082      -5396.3571     -1392.1428     -1721.889     
      2700   289.89974     -3176.356       319.14152      883.75088    
      2800   293.35604     -4261.2062     -936.89332     -516.79661    
      2900   295.47305     -5379.2721     -2135.6264     -1333.0226    
      3000   289.44107     -9561.0082     -6961.3796     -6288.7726    
      3100   288.89564     -10015.344     -7156.6212     -6428.9189    
      3200   291.44597     -5490.6629     -1875.2509     -1822.7137    
      3300   295.2783      -4758.5033     -724.67816     -483.47595    
      3400   290.64374     -6074.1517     -2192.8881     -2282.2064    
      3500   288.10322     -5971.2868     -2184.4079     -2463.983     
      3600   288.80457     -5899.596      -1871.1063     -2453.9996    
      3700   291.71837     -4871.5577     -562.57487     -1300.1357    
      3800   293.76787     -5537.0778     -1026.7445     -1716.9667    
      3900   291.85642     -7573.3842     -3592.9133     -4336.8097    
      4000   292.86569     -7845.7099     -4257.1376     -4612.2003    
      4100   291.56958     -7806.3342     -4381.6345     -4805.4836    
      4200   291.16991     -7092.1227     -4110.7067     -3774.4451    
      4300   293.83198     -3327.5854      1173.2651      849.99686    
      4400   289.87346     -3614.8883     -262.6025       681.45232    
      4500   289.42051     -7393.3418     -3992.876      -3632.9369    
      4600   286.26702     -8436.0992     -5357.3859     -4403.6541    
      4700   292.11873     -8486.9179     -5605.4195     -5182.5133    
      4800   294.28081     -5988.8231     -2362.2233     -2138.905     
      4900   292.85663     -4082.619      -656.31812     -146.56723    
      5000   289.86311     -4650.9327     -986.1865      -1138.3006    
      5100   286.48724     -4627.9242     -781.04879     -1260.6832    
      5200   285.89851     -7217.9344     -3776.2428     -4032.7298    
      5300   293.16181     -9131.1152     -5368.3011     -5907.3505    
      5400   296.34314     -6584.2844     -2963.5094     -3525.7021    
      5500   294.51786     -6100.301      -2561.374      -2654.0794    
      5600   289.12332     -6666.4439     -3455.3779     -3915.4053    
      5700   290.55774     -6608.8329     -3301.2948     -3235.3521    
      5800   288.0031      -4885.2198     -1475.0001     -1277.7365    
      5900   289.48379     -4694.4856     -1351.6613     -640.43064    
      6000   290.71994     -4629.8366     -1390.1422     -531.38478    
      6100   292.46702     -7802.3014     -4478.4032     -4203.8493    
      6200   294.1981      -9139.2515     -5844.5796     -5812.5511    
      6300   289.76489     -7849.378      -4714.9896     -4510.4734    
      6400   291.94834     -6184.1812     -2385.1397     -2490.2678    
      6500   291.05262     -4081.8772     -386.00603     -767.13553    
      6600   288.93896     -3108.2705      1071.4472      738.78032    
      6700   289.1608      -6054.6309     -2309.8439     -2438.9929    
      6800   290.43936     -7512.8193     -4106.5333     -4177.5412    
      6900   294.02812     -7959.543      -4623.1843     -4607.1946    
      7000   289.55548     -6787.9063     -3460.5169     -3170.6277    
      7100   293.883       -6622.9711     -2912.409      -3166.9609    
      7200   290.25084     -6994.1503     -3212.7958     -3399.2549    
      7300   289.93301     -6843.5403     -3062.3898     -3818.903     
      7400   288.1674      -5391.1075     -1803.1934     -2254.3257    
      7500   290.84338     -5571.3865     -2122.2143     -2232.8899    
      7600   291.50971     -5232.6177     -1640.4853     -1791.0329    
      7700   290.46079     -6111.2441     -2455.199      -2077.5721    
      7800   292.53882     -8327.9308     -5489.9726     -4877.0955    
      7900   288.62894     -7377.3512     -4365.6717     -4018.5379    
      8000   290.36008     -6297.9478     -3083.7968     -2365.8814    
      8100   292.19666     -4451.2507     -599.81055     -357.87031    
      8200   292.2685      -4268.0552     -604.64699     -698.30678    
      8300   289.13254     -6048.8199     -2351.3953     -2668.765     
      8400   289.27895     -7202.6708     -3598.2049     -3987.6234    
      8500   289.25971     -7724.8665     -3807.6568     -4378.1853    
      8600   293.94624     -7375.4265     -3347.4738     -4036.858     
      8700   294.69521     -6220.6443     -2445.7512     -2673.7705    
      8800   292.80796     -6147.9227     -2506.4598     -2284.1441    
      8900   290.56746     -5223.7244     -1913.9766     -1901.5776    
      9000   288.62937     -5887.8155     -2421.7084     -2162.0425    
      9100   289.32734     -5003.8946     -1284.2862     -1559.0005    
      9200   292.4462      -5366.9408     -2279.3065     -1824.2089    
      9300   291.33067     -6178.8066     -2730.8789     -2613.0687    
      9400   289.76004     -7206.0338     -3908.7968     -3639.8208    
      9500   292.65317     -8313.6313     -4853.6122     -4947.0307    
      9600   290.45191     -6112.093      -2310.5259     -2295.8326    
      9700   289.13734     -4685.36       -655.66636     -782.0404     
      9800   287.84238     -4992.3646     -967.44734     -1042.0654    
      9900   292.87939     -5786.94       -2450.9819     -2258.2232    
     10000   291.42172     -6974.5098     -3399.6179     -3441.832     
Loop time of 119.704 on 1 procs for 10000 steps with 13400 atoms

Performance: 14.436 ns/day, 1.663 hours/ns, 83.539 timesteps/s, 1.119 Matom-step/s
99.7% CPU use with 1 MPI tasks x no OpenMP threads

MPI task timing breakdown:
Section |  min time  |  avg time  |  max time  |%varavg| %total
---------------------------------------------------------------
Pair    | 117.7      | 117.7      | 117.7      |   0.0 | 98.32
Neigh   | 0          | 0          | 0          |   0.0 |  0.00
Comm    | 0.0061584  | 0.0061584  | 0.0061584  |   0.0 |  0.01
Output  | 0.014821   | 0.014821   | 0.014821   |   0.0 |  0.01
Modify  | 1.5714     | 1.5714     | 1.5714     |   0.0 |  1.31
Other   |            | 0.4137     |            |       |  0.35

Nlocal:          13400 ave       13400 max       13400 min
Histogram: 1 0 0 0 0 0 0 0 0 0
Nghost:              0 ave           0 max           0 min
Histogram: 1 0 0 0 0 0 0 0 0 0
Neighs:         971096 ave      971096 max      971096 min
Histogram: 1 0 0 0 0 0 0 0 0 0

Total # of neighbors = 971096
Ave neighs/atom = 72.469851
Neighbor list builds = 0
Dangerous builds = 0

fix 1 right move linear 0.01 0.0 0.0

run 1500000
Per MPI rank memory allocation (min/avg/max) = 9.113 | 9.113 | 9.113 Mbytes
   Step          Temp           Pxx            Pyy            Pzz      
     10000   291.42172     -6593.1617     -3213.7356     -3253.6415    
     10100   292.4038      -7119.4228     -4035.2205     -4157.5837    
     10200   292.7529      -7563.6919     -4082.1327     -4502.5473    
     10300   293.05704     -6361.8835     -2863.5151     -3528.5934    
     10400   291.275       -5278.0199     -1788.8944     -2180.6949    
     10500   289.04679     -5366.5018     -1833.78       -1926.3954    
     10600   288.62361     -4805.9571     -1512.9164     -1350.7307    
     10700   289.99361     -5654.5938     -2352.407      -2216.0961    
     10800   291.77245     -6290.7948     -2876.2617     -2447.8986    
     10900   290.02447     -6102.5066     -2897.0791     -2345.0417    
     11000   290.41593     -6793.5786     -3807.8524     -3157.9356    
     11100   291.40908     -6732.6203     -3464.4924     -2680.8852    
     11200   289.17828     -5887.8626     -2601.5782     -1886.494     
     11300   294.23735     -5517.9551     -1653.3132     -1545.5395    
     11400   293.21915     -5322.8993     -1374.4698     -1421.8591    
     11500   290.44054     -6411.3655     -2380.0763     -2698.0546    
     11600   289.58071     -7233.1406     -3479.2223     -3772.8077    
     11700   288.1347      -8257.0769     -4199.6739     -4818.1836    
     11800   290.76568     -7252.9987     -3187.6045     -3755.5862    
     11900   291.95327     -5799.0949     -1531.197      -2188.7254    
     12000   292.60824     -5116.2542     -996.11461     -1287.5621    
     12100   290.42386     -5778.5964     -1183.7221     -1313.3772    
     12200   287.38503     -6127.0368     -2136.218      -1816.3232    
     12300   290.01241     -7095.2814     -2644.98       -3404.3589    
     12400   288.3289      -7650.3335     -3544.707      -3863.6736    
     12500   291.53893     -7779.9899     -4047.7217     -3882.4471    
     12600   290.18471     -7456.0505     -3545.1769     -3092.4311    
     12700   288.52811     -7146.5523     -3432.0559     -3047.345     
     12800   288.54442     -6310.962      -2026.0965     -1625.3699    
     12900   292.76431     -6085.4349     -1949.5545     -1349.4179    
     13000   289.12271     -6192.4449     -2051.9936     -1130.8169    
     13100   290.64028     -7711.8132     -3384.8513     -3153.6063    
     13200   291.96806     -8237.1107     -3844.0775     -3964.8522    
     13300   289.16116     -7378.0997     -3180.6433     -3267.583     
     13400   291.40876     -7451.4727     -2768.8056     -3516.6186    
     13500   291.42129     -6805.7256     -2223.5556     -2741.2966    
     13600   289.85856     -5657.121      -947.87119     -1630.4613    
     13700   292.1436      -6217.3959     -1243.5172     -2087.3396    
     13800   293.48899     -6858.8708     -1797.4939     -2883.3993    
     13900   292.8408      -6940.4947     -2440.0111     -2373.7436    
     14000   290.33781     -7455.1987     -2852.3008     -2727.2933    
     14100   285.67488     -7639.3022     -3390.3957     -2997.5967    
     14200   286.9867      -7294.9994     -2868.5909     -2527.284     
     14300   286.54379     -7361.27       -3271.9051     -2291.5124    
     14400   289.59621     -6139.4788     -2034.6717     -1187.2773    
     14500   293.42967     -6454.0717     -2139.0845     -1636.4938    
     14600   291.23194     -7244.6945     -2881.4163     -2747.2898    
     14700   293.45273     -7400.3822     -2624.944      -2675.0995    
     14800   289.91774     -9048.5435     -4150.3524     -4381.4012    
     14900   288.94907     -8293.7943     -3081.1143     -3601.0345    
     15000   291.77879     -7542.6798     -2109.4805     -2575.284     
     15100   293.59675     -6756.9522     -1439.7344     -1643.0005    
     15200   290.95472     -6070.8554     -943.50962     -1156.5956    
     15300   290.19029     -6492.8977     -1499.3841     -1850.7625    
     15400   288.66641     -7492.1451     -2505.0749     -2873.5403    
     15500   288.14657     -9585.6867     -4175.8834     -4968.9233    
     15600   291.36566     -8907.1631     -3864.1168     -4003.3265    
     15700   291.55563     -8239.131      -2986.5512     -3129.8269    
     15800   291.89605     -7061.8542     -2402.5293     -1955.9706    
     15900   290.07425     -6916.6301     -2079.1771     -1581.3286    
     16000   288.86989     -7682.1646     -2853.6654     -2168.5802    
     16100   292.56071     -6799.3998     -1668.5009     -1231.606     
     16200   290.07116     -7468.1293     -2342.6711     -2234.1838    
     16300   292.71931     -8001.4116     -2525.7734     -2711.2657    
     16400   289.61062     -8248.4002     -2752.2834     -3116.6034    
     16500   292.76243     -9356.5476     -4222.9722     -3967.922     
     16600   291.40234     -8114.8339     -2762.7304     -3235.3998    
     16700   288.91293     -7348.3937     -1789.3165     -2223.6132    
     16800   287.37476     -7303.7386     -1617.9887     -1747.8848    
     16900   289.15437     -6921.9431     -1507.2591     -1608.0927    
     17000   287.42037     -8540.2264     -3237.2077     -3437.1913    
     17100   288.1734      -9006.0982     -3419.4136     -3475.0809    
     17200   291.31582     -9441.1149     -4121.9543     -4251.8986    
     17300   290.93697     -8446.0472     -3098.4558     -2930.3616    
     17400   290.2618      -7871.349      -2367.6129     -2597.4904    
     17500   290.09544     -7519.1466     -1874.1119     -2071.0153    
     17600   288.07944     -8318.8015     -2583.873      -2693.1834    
     17700   291.04783     -8396.8966     -2951.6033     -3169.3049    
     17800   290.83511     -8281.3652     -2620.1455     -2689.401     
     17900   290.62701     -8824.8193     -3407.1466     -3112.9274    
     18000   288.36635     -9051.6746     -3856.3385     -3284.1842    
     18100   290.21912     -8801.9529     -3406.61       -2910.6368    
     18200   288.79345     -8299.3683     -2650.2303     -2177.6261    
     18300   288.12755     -8108.7984     -1968.7126     -1723.7587    
     18400   293.58497     -7827.4699     -1400.5119     -1365.3396    
     18500   292.20904     -8299.2451     -2421.2069     -2664.0413    
     18600   290.72719     -8938.2394     -2804.8978     -3467.9013    
     18700   289.86888     -10045.679     -4015.7681     -4429.4348    
     18800   292.79783     -10346.43      -4302.956      -4614.3794    
     18900   287.05        -8375.9808     -1815.3339     -2518.1169    
     19000   287.37762     -7851.3145     -1183.9731     -2097.6963    
     19100   285.40739     -7988.7869     -1383.2723     -1890.7817    
     19200   292.1138      -7933.608      -1330.6946     -1641.3722    
     19300   292.22529     -8834.7854     -2762.4586     -2523.7222    
     19400   291.87764     -9929.1686     -3987.7755     -3409.2899    
     19500   292.92396     -10314.89      -4722.2303     -4095.7437    
     19600   292.77006     -10131.397     -3934.916      -3427.0721    
     19700   293.72831     -9429.4095     -3711.4412     -2973.146     
     19800   291.05857     -9337.3693     -3363.8857     -2816.2082    
     19900   291.60004     -8627.7927     -2712.4017     -2006.4871    
     20000   291.2249      -8546.1002     -2504.7167     -2353.4026    
     20100   293.62121     -9127.5774     -2500.2376     -3212.7658    
     20200   292.50279     -9772.2427     -3614.2583     -3952.7008    
     20300   288.63081     -10014.314     -3558.1583     -4015.6945    
     20400   293.50328     -9622.7947     -2990.334      -3611.6431    
     20500   289.63671     -9129.3088     -1887.9066     -2481.1695    
     20600   288.77275     -9103.1324     -1953.4408     -2821.1236    
     20700   288.56965     -8907.5143     -1710.9902     -2408.6048    
     20800   285.6714      -9311.3685     -2534.7145     -2705.3978    
     20900   291.83534     -9953.1482     -3331.316      -2934.2793    
     21000   294.70341     -10297.128     -4110.4968     -3723.3595    
     21100   289.79063     -9870.0864     -3751.7134     -2599.6784    
     21200   291.47613     -9303.276      -2956.1178     -2136.1441    
     21300   293.29447     -9916.9254     -3070.4664     -2739.8278    
     21400   286.38118     -9531.6315     -2856.4361     -2374.2674    
     21500   289.08371     -9197.1115     -2428.9343     -2201.8776    
     21600   290.01083     -8934.8635     -1862.9006     -1949.3935    
     21700   294.10149     -9766.9978     -2200.3486     -2784.983     
     21800   292.73774     -10193.741     -2815.0749     -3470.5724    
     21900   291.01883     -10395.596     -3505.6982     -3965.4087    
     22000   292.38003     -10814.297     -3265.8095     -4074.2796    
     22100   289.52233     -9701.7677     -2462.7914     -3005.3906    
     22200   290.49637     -8879.4725     -1433.7776     -1619.0735    
     22300   290.79717     -8858.805      -1487.0715     -1677.2288    
     22400   292.6853      -9230.7285     -1969.7965     -1721.8626    
     22500   290.91858     -10430.895     -3940.0838     -3422.7325    
     22600   289.00564     -10935.975     -4153.6505     -3484.1697    
     22700   292.76482     -11630.257     -4516.0532     -4028.9983    
     22800   289.12784     -11130.058     -4151.0203     -4139.9894    
     22900   293.72967     -9912.4579     -2837.2629     -2899.4882    
     23000   291.54767     -8541.6548     -1191.914      -1259.293     
     23100   293.15681     -8534.9403     -1523.8267     -1212.9304    
     23200   290.60776     -9539.4479     -2153.5756     -2047.009     
     23300   293.30946     -10015.031     -2930.2309     -2764.9913    
     23400   288.89692     -11285.812     -3821.0697     -3733.9974    
     23500   291.31482     -11541.76      -3804.2015     -3786.7973    
     23600   291.84148     -11301.885     -3632.1143     -3446.2535    
     23700   291.30293     -9955.3652     -2570.7757     -2395.6422    
     23800   291.09826     -9194.1845     -1288.9894     -1685.464     
     23900   288.90073     -9339.4894     -1277.7176     -1594.8547    
     24000   291.69141     -10199.828     -2080.1332     -2591.0846    
     24100   287.87649     -11246.927     -3723.2897     -3891.1933    
     24200   293.49577     -12320.801     -5097.1382     -5273.4097    
     24300   293.55935     -11944.673     -4625.8531     -4754.1258    
     24400   291.79253     -10178.296     -2325.0483     -2422.6658    
     24500   289.62923     -9874.1038     -1657.0035     -1877.0129    
     24600   286.4845      -9891.3374     -1945.5334     -1851.3746    
     24700   288.75733     -10666.046     -2795.8604     -2585.3907    
     24800   288.53432     -11027.383     -3280.772      -2894.0543    
     24900   290.12557     -11877.291     -4486.5648     -4180.0716    
     25000   291.09427     -11688.197     -3803.6057     -3551.0464    
     25100   291.82578     -11554.676     -3992.7926     -3489.1031    
     25200   289.4242      -10877.998     -3051.5726     -2732.371     
     25300   287.74913     -10739.744     -2643.6895     -2192.1083    
     25400   290.21314     -10793.385     -2396.7755     -2586.1791    
     25500   291.21444     -9920.0733     -1213.6305     -1654.2067    
     25600   292.44726     -11346.235     -2851.4133     -3462.7084    
     25700   291.75021     -12423.056     -3730.4709     -5057.5455    
     25800   291.3322      -12188.03      -3599.6632     -4474.0544    
     25900   290.16133     -11076.5       -2519.3199     -2945.2022    
     26000   290.97152     -10909.418     -2312.4602     -2674.377     
     26100   288.24904     -10632.55      -2159.465      -1991.3025    
     26200   288.96301     -10514.731     -1911.2948     -1941.9925    
     26300   289.79267     -10873.121     -2810.8939     -2523.4284    
     26400   291.33492     -10896.03      -2844.7909     -1833.4412    
     26500   291.26675     -12964.515     -4754.7776     -4138.0719    
     26600   291.00273     -12688.576     -4698.0381     -3874.5043    
     26700   294.0839      -11649.005     -3674.642      -2650.2997    
     26800   293.01353     -12169.56      -3536.8006     -3680.7473    
     26900   291.75592     -11444.666     -2651.4386     -2526.0343    
     27000   289.28938     -11249.522     -2384.9831     -2905.1414    
     27100   287.46171     -11933.772     -2764.0773     -3303.2598    
     27200   291.60146     -11682.997     -2097.3958     -3401.2384    
     27300   290.29092     -12607.325     -3153.1593     -4391.9964    
     27400   290.75125     -11995.693     -2954.7085     -3320.6149    
     27500   291.67384     -12334.219     -3243.0753     -3798.7699    
     27600   292.00289     -12521.124     -3683.8589     -3971.6274    
     27700   291.02562     -11839.63      -2637.1354     -2276.1322    
     27800   289.10128     -11014.104     -1932.7875     -1520.0639    
     27900   292.36923     -11736.543     -3265.5882     -2510.3842    
     28000   295.4752      -12750.7       -4458.5805     -3672.7477    
     28100   289.14287     -12370.768     -3867.1156     -3303.323     
     28200   289.51025     -12423.573     -3284.0681     -3112.3814    
     28300   288.63404     -12158.901     -3234.1848     -2634.4712    
     28400   292.56134     -11694.091     -2630.7236     -2239.8545    
     28500   295.77471     -12022.931     -2963.6064     -3225.1311    
     28600   293.58397     -12170.467     -2700.0778     -3282.5033    
     28700   290.51517     -12254.601     -2812.3609     -3685.3549    
     28800   287.66897     -12344.905     -2742.9164     -3273.5779    
     28900   288.54277     -12372.725     -2791.5213     -3273.9479    
     29000   288.13648     -12246.162     -3079.6246     -2859.228     
     29100   295.04913     -12986.738     -3853.2366     -3801.7875    
     29200   293.1715      -11776.276     -2584.0852     -2307.5584    
     29300   292.51295     -12492.551     -3075.0569     -3143.0702    
     29400   291.40912     -12325.079     -3027.5475     -3036.9861    
     29500   289.33847     -11841.127     -2648.1811     -2576.1302    
     29600   289.23613     -13421.438     -4587.675      -4410.9198    
     29700   289.89897     -13047.222     -3699.8573     -3555.1027    
     29800   295.41047     -12899.482     -3244.5011     -3455.9834    
     29900   296.18422     -12909.67      -3415.2869     -3673.1411    
     30000   290.42341     -11786.748     -2315.9595     -2285.1006    
     30100   292.44893     -11948.886     -2565.6792     -2447.4636    
     30200   291.45687     -12270.235     -2432.6706     -2500.8314    
     30300   289.2266      -12124.621     -2234.7796     -2139.3973    
     30400   293.18685     -13148.563     -3785.6464     -3704.0003    
     30500   290.23045     -12787.177     -3384.781      -2967.691     
     30600   292.89562     -13165.882     -3857.2647     -3156.4652    
     30700   290.96335     -13231.079     -3824.5865     -3315.5199    
     30800   290.01559     -12750.266     -2870.1426     -2543.5793    
     30900   292.8702      -12476.263     -2616.469      -2559.0914    
     31000   291.82582     -12937.409     -2882.5719     -2962.4234    
     31100   294.8539      -13037.659     -2873.2915     -3209.9116    
     31200   294.63891     -12725.179     -2552.656      -3305.4691    
     31300   290.94167     -13736.04      -3267.3222     -3974.0336    
     31400   287.98212     -13011.911     -2926.6336     -2850.2811    
     31500   289.57457     -13058.754     -3096.7729     -2961.6601    
     31600   290.6585      -13593.231     -3795.4147     -3785.858     
     31700   295.3839      -11986.058     -1459.275      -1622.5114    
     31800   294.27216     -13439.142     -3566.5871     -3230.4959    
     31900   289.71309     -13830.698     -4118.2507     -3171.4393    
     32000   288.75422     -13639.506     -3340.2531     -2933.9588    
     32100   292.00587     -14237.824     -4505.1389     -3923.4423    
     32200   290.78553     -13293.746     -3327.2236     -2907.8461    
     32300   293.62787     -13410.71      -3114.4637     -3090.4712    
     32400   292.44457     -13835.147     -3481.3231     -3664.2988    
     32500   288.33556     -12875.268     -2203.2482     -2495.1167    
     32600   289.84853     -13562.862     -3041.2986     -3615.032     
     32700   290.84141     -13498.847     -2671.5053     -3403.8646    
     32800   290.11191     -13886.924     -3250.5565     -3881.1769    
     32900   291.17385     -14344.651     -3819.0562     -4141.438     
     33000   290.18577     -13791.651     -2879.5329     -3471.3522    
     33100   288.2408      -12886.321     -2104.4476     -2128.7739    
     33200   290.38206     -12971.525     -2121.2207     -2067.1346    
     33300   292.05092     -13079.721     -2775.3162     -2510.1923    
     33400   289.1586      -13886.256     -3444.185      -3147.9338    
     33500   291.65288     -14174.292     -3912.2477     -3540.3609    
     33600   290.85579     -14433.234     -3847.4112     -3584.5996    
     33700   291.11017     -14661.849     -4061.4353     -3656.7223    
     33800   290.97541     -13505.729     -3049.8748     -2392.5932    
     33900   289.13182     -14159.971     -3477.4936     -3168.5703    
     34000   290.31775     -13919.307     -3078.6174     -2872.5482    
     34100   290.0322      -13781.43      -2498.7212     -2694.2511    
     34200   291.14617     -14301.907     -2474.8685     -2986.3759    
     34300   289.96095     -13982.749     -2673.7849     -3081.9464    
     34400   291.13917     -14824.835     -3613.3587     -4272.6428    
     34500   288.23899     -14989.855     -3695.9889     -3707.8147    
     34600   288.3037      -14300.916     -3085.3074     -3269.5427    
     34700   293.37295     -14068.031     -2876.6423     -3300.0893    
     34800   290.41409     -13900.561     -2396.5545     -3015.0156    
     34900   289.16457     -14543.116     -3419.89       -3441.8359    
     35000   288.55589     -14505.447     -3373.675      -3465.3442    
     35100   288.88259     -14724.42      -3605.2006     -3576.0289    
     35200   291.53102     -14925.829     -3582.9537     -3236.8477    
     35300   292.28417     -14361.827     -3303.3518     -2989.1104    
     35400   291.41846     -13628.367     -2354.9398     -2229.2651    
     35500   292.98033     -14705.99      -3292.9991     -3110.9074    
     35600   294.25184     -14201.731     -2788.4994     -2402.4975    
     35700   292.31433     -15072.544     -3891.1442     -3537.5941    
     35800   290.60705     -15010.86      -3648.4882     -3194.1812    
     35900   292.04031     -15150.239     -3485.5556     -3229.4977    
     36000   292.37994     -14572.173     -3041.8106     -2778.4222    
     36100   291.26738     -14622.162     -2949.7266     -2816.4024    
     36200   290.45153     -15045.892     -3284.6978     -3597.7707    
     36300   291.03465     -14834.719     -2831.8907     -3236.5969    
     36400   288.5051      -14830.988     -3075.2784     -3153.452     
     36500   288.414       -15022.797     -2601.6222     -3111.3735    
     36600   294.91871     -15758.044     -3502.9489     -3929.3246    
     36700   293.38415     -16407.666     -4023.5624     -4874.0155    
     36800   288.01576     -15754.961     -3688.0032     -4411.5589    
     36900   291.69842     -15302.115     -3099.2414     -3744.6272    
     37000   291.76715     -14953.188     -2860.9797     -2849.0403    
     37100   291.56607     -14179.24      -2141.3118     -1844.5753    
     37200   286.42083     -14783.021     -2679.1891     -2229.2599    
     37300   288.09415     -15218.796     -3475.1948     -2844.3765    
     37400   291.05961     -15867.676     -4522.1948     -3835.1363    
     37500   289.98007     -16510.221     -5059.8622     -4053.9054    
     37600   292.63303     -15484.201     -3405.4173     -2870.1764    
     37700   289.9759      -15534.454     -3237.6166     -3047.489     
     37800   289.99571     -15162.643     -2800.2711     -2424.7685    
     37900   288.29494     -15673.434     -2872.1157     -3011.787     
     38000   290.97657     -15573.566     -3255.1705     -3420.6648    
     38100   292.68585     -15785.633     -3361.753      -3496.6557    
     38200   291.26399     -15607.633     -2989.7049     -3437.8745    
     38300   291.53523     -15596.962     -3099.9165     -3723.3912    
     38400   290.00924     -15908.3       -3122.8774     -3473.5194    
     38500   289.25648     -15456.56      -2363.8934     -3123.0402    
     38600   288.7772      -15878.943     -2289.2477     -3694.7251    
     38700   295.901       -16223.846     -3374.6492     -3827.9607    
     38800   292.85745     -16016.593     -3591.5959     -3636.475     
     38900   291.01028     -17097.462     -4538.1094     -4159.9326    
     39000   290.44294     -16506.213     -4307.2143     -3686.3236    
     39100   292.33248     -16289.767     -3610.1245     -3177.0476    
     39200   294.77267     -15820.17      -3432.444      -3264.6138    
     39300   295.59841     -15765.094     -3166.075      -2445.9441    
     39400   291.5633      -16273.748     -4227.96       -2945.8484    
     39500   290.75518     -16698.175     -4202.8639     -3470.6927    
     39600   289.54622     -15572.65      -2865.0846     -2372.8059    
     39700   287.62616     -16805.912     -4282.611      -3991.2968    
     39800   291.53635     -16832.907     -4026.0315     -4136.3964    
     39900   293.9881      -16228.427     -3510.9197     -3468.599     
     40000   288.71511     -15693.832     -2125.7285     -2761.589     
     40100   288.28259     -15732.14      -2467.8011     -2772.804     
     40200   290.94815     -16045.39      -2407.172      -3355.3815    
     40300   290.42901     -16388.888     -2765.5306     -3243.1138    
     40400   293.29359     -17585.877     -4234.4838     -4773.5787    
     40500   292.80996     -16904.234     -3763.2319     -4241.7246    
     40600   288.58984     -16564.575     -3668.324      -3952.2875    
     40700   294.18635     -16957.587     -3367.8281     -3512.4566    
     40800   289.40156     -15898.043     -2849.2137     -2381.4562    
     40900   289.24888     -16580.063     -3479.5565     -2901.3359    
     41000   291.77301     -15580.535     -2450.8194     -1616.5715    
     41100   293.03673     -17599.649     -4603.858      -4228.4834    
     41200   291.35713     -17294.242     -4290.8397     -3619.91      
     41300   290.7605      -16557.386     -3366.4427     -3250.2299    
     41400   290.76287     -17051.882     -3639.9666     -3605.6081    
     41500   288.4746      -16654.997     -2932.1756     -2570.5673    
     41600   289.84337     -16953.666     -3711.7129     -3211.209     
     41700   292.60001     -17577.646     -3969.4335     -3853.2607    
     41800   291.6153      -17224.585     -3602.376      -3574.7196    
     41900   289.57758     -17015.848     -3179.5492     -3334.8389    
     42000   290.00311     -17291.462     -3345.6119     -3410.271     
     42100   288.95493     -17940.413     -3964.5572     -4171.1911    
     42200   289.7609      -18208.075     -4160.078      -4519.7509    
     42300   291.93511     -16981.466     -2634.5975     -2893.1443    
     42400   291.09409     -15969.536     -1694.2706     -2162.1983    
     42500   295.41864     -16686.299     -2010.5304     -2554.1785    
     42600   289.59283     -17982.796     -3631.5347     -4321.1731    
     42700   288.67271     -18137.237     -4360.6371     -4600.3342    
     42800   287.44967     -17670.769     -3369.5728     -3749.0226    
     42900   291.76154     -17713.738     -3480.6062     -3498.3932    
     43000   290.16207     -16808.732     -2898.9053     -2597.7921    
     43100   293.14592     -17169.272     -3077.5407     -2927.6988    
     43200   293.60045     -18115.029     -4382.5018     -3929.1963    
     43300   291.07848     -17658.717     -3931.8519     -3410.6743    
     43400   290.06595     -18172.298     -4466.7832     -3641.0629    
     43500   292.33573     -17633.288     -3569.69       -2611.9268    
     43600   292.06119     -17325.335     -3399.5048     -2718.34      
     43700   292.01983     -18606.731     -4892.0176     -4529.3118    
     43800   291.01846     -17600.301     -3430.9049     -3076.4965    
     43900   291.54939     -17769.725     -2987.0078     -3291.7499    
     44000   290.61578     -18187.721     -3271.641      -3940.846     
     44100   287.80367     -17938.425     -3064.1519     -3677.9086    
     44200   293.43956     -18140.148     -3349.9433     -3905.6877    
     44300   292.00379     -17948.198     -2701.307      -3636.8959    
     44400   292.46396     -18110.092     -3081.8169     -3791.3964    
     44500   290.55744     -18320.359     -3409.4765     -4295.9688    
     44600   288.41369     -17394.069     -2489.3823     -2999.8556    
     44700   289.74028     -18409.596     -3711.1707     -4007.0192    
     44800   292.11196     -18699.656     -4059.8377     -4103.9723    
     44900   292.99932     -18240.009     -3788.7578     -3616.6667    
     45000   292.4999      -18301.457     -3817.7696     -3282.6674    
     45100   291.97493     -17321.904     -2540.489      -1903.3157    
     45200   290.08118     -17631.971     -2683.4061     -2100.5       
     45300   290.13582     -17797.477     -3301.3462     -2918.4469    
     45400   291.61436     -19285.614     -4499.1217     -4054.673     
     45500   294.97489     -19324.185     -4927.8596     -4224.6431    
     45600   295.39594     -18426.737     -3274.3981     -3468.9567    
     45700   294.28895     -18458.319     -3685.6367     -3185.0709    
     45800   291.46426     -18361.61      -3246.8032     -3233.105     
     45900   290.54126     -19303.618     -3966.6384     -4229.6677    
     46000   289.33407     -19001.091     -3730.4313     -4033.777     
     46100   292.72355     -18801.973     -3206.9903     -3804.2496    
     46200   293.42171     -18769.692     -3142.2124     -3971.487     
     46300   293.08304     -17957.174     -2171.3607     -3089.8227    
     46400   292.00104     -19555.564     -3727.486      -4516.7442    
     46500   289.5958      -19360.875     -3848.9336     -3998.4959    
     46600   291.35673     -18828.691     -3562.301      -3165.5967    
     46700   291.54358     -19113.287     -3563.73       -3433.6404    
     46800   291.64431     -18466.28      -3128.7425     -3298.489     
     46900   288.87195     -18398.976     -3263.6113     -3113.8205    
     47000   291.52271     -19175.069     -3472.7191     -3241.8181    
     47100   291.69524     -19613.796     -4019.3622     -3919.0179    
     47200   288.28997     -19578.441     -4587.8531     -4129.5981    
     47300   291.31957     -18706.755     -3255.3216     -3007.5482    
     47400   294.85407     -18838.384     -2989.6324     -3154.3353    
     47500   292.26656     -18657.916     -3105.9597     -2610.8487    
     47600   292.15774     -19002.823     -3242.3946     -3173.787     
     47700   292.70053     -19945.921     -4833.2755     -4360.2698    
     47800   290.79555     -19538.471     -3863.0751     -3490.7836    
     47900   293.69661     -19593.186     -3895.0698     -3763.1154    
     48000   291.6309      -19464.466     -3530.1947     -3314.551     
     48100   290.27394     -18363.971     -2329.2771     -2381.0238    
     48200   288.5429      -19575.869     -3556.2578     -4171.5651    
     48300   290.18659     -19956.415     -3606.662      -4098.5354    
     48400   287.57469     -19947.383     -3798.475      -4084.4284    
     48500   292.56059     -19228.452     -3204.7771     -4001.4152    
     48600   290.37728     -19757.701     -3498.6951     -3952.8039    
     48700   285.01161     -20395.047     -4206.405      -4499.9642    
     48800   288.01271     -20172.689     -3836.9149     -4133.9773    
     48900   292.25227     -19689.021     -3618.3128     -3318.0505    
     49000   290.75215     -19364.505     -3477.5684     -3107.3826    
     49100   291.72661     -19284.802     -2854.7578     -2652.9708    
     49200   293.51743     -20378.931     -4010.3016     -3783.3866    
     49300   292.51439     -19627.027     -3536.8959     -3028.1935    
     49400   292.77465     -20126.853     -4151.2162     -3975.5092    
     49500   287.86544     -19349.941     -3262.7587     -2506.7571    
     49600   288.38121     -19960.391     -3653.9389     -3432.0453    
     49700   292.0688      -20608.163     -4432.473      -3778.0482    
     49800   293.72763     -19780.411     -3479.6487     -3026.0263    
     49900   293.80075     -20654.886     -4498.5704     -4279.8622    
     50000   289.92932     -19875.918     -3434.7625     -3362.3126    
     50100   288.99816     -20504.642     -3943.8662     -4033.4572    
     50200   290.5823      -20608.936     -3879.972      -4208.5417    
     50300   291.02282     -20129.835     -2829.8739     -3448.4153    
     50400   291.09534     -20840.078     -3767.9722     -4509.9408    
     50500   294.91875     -20540.789     -3681.4854     -4241.1094    
     50600   290.84932     -20561.774     -3452.1532     -4045.8687    
     50700   289.65316     -20215.238     -2926.4321     -3630.5859    
     50800   289.24876     -20177.078     -3236.2911     -3466.2523    
     50900   288.95191     -20724.065     -4426.4506     -4015.2831    
     51000   290.14416     -20746.292     -4259.6031     -3840.8601    
     51100   292.11008     -21030.404     -4157.1865     -3986.1408    
     51200   290.72581     -20878.903     -4521.3731     -3681.0074    
     51300   292.86051     -20218.396     -3143.6861     -2194.9144    
     51400   290.41317     -20507.215     -3289.9437     -3181.6078    
     51500   288.2478      -20099.3       -3110.0379     -2951.7999    
     51600   292.71266     -21007.238     -3514.5749     -3437.085     
     51700   291.50529     -20827.506     -3491.1318     -3965.9374    
     51800   293.10268     -20989.891     -3712.3317     -4220.3747    
     51900   289.9561      -21196.576     -3995.9509     -4557.6296    
     52000   292.28689     -21227.57      -3857.7231     -4148.591     
     52100   288.19664     -20219.417     -2522.7284     -2744.2426    
     52200   286.17211     -20452.91      -3295.1634     -3070.3347    
     52300   286.86973     -20248.836     -2517.4711     -2481.0911    
     52400   291.20572     -21440.194     -4412.7717     -4304.727     
     52500   291.46214     -21713.216     -4392.5074     -4442.052     
     52600   291.65019     -22256.836     -4927.2968     -5088.3422    
     52700   291.01775     -22081.041     -4451.3261     -4571.3659    
     52800   290.87832     -21036.271     -2799.63       -2895.5997    
     52900   287.95206     -21448.094     -3783.7734     -3690.1424    
     53000   292.95105     -21005.592     -3092.6147     -3061.0002    
     53100   292.10476     -21385.025     -3264.9207     -3823.3979    
     53200   290.69713     -22478.672     -4967.8629     -4645.68      
     53300   291.63644     -21278.526     -3514.3788     -3135.6833    
     53400   288.57621     -22054.844     -4146.0382     -4337.8795    
     53500   291.3912      -21335.622     -3241.5121     -3576.3588    
     53600   288.73223     -21998.734     -3778.3493     -3802.6445    
     53700   292.04804     -22226.624     -4162.5968     -4323.3547    
     53800   289.7446      -21724.45      -3697.8214     -3244.4585    
     53900   291.55644     -22088.704     -4158.0086     -3842.7924    
     54000   292.4293      -21354.644     -3325.9946     -3027.5902    
     54100   289.4584      -21833.405     -3741.6802     -3422.8376    
     54200   288.56486     -22360.275     -4228.8905     -3779.1679    
     54300   290.10655     -21742.509     -3252.0184     -3218.2816    
     54400   294.7761      -22601.818     -4476.2475     -4545.2294    
     54500   293.45869     -21805.629     -3245.7194     -3491.3576    
     54600   291.74663     -21928.82      -3318.9874     -3268.7023    
     54700   290.03708     -22230.29      -3866.432      -3997.9893    
     54800   288.04369     -22652.753     -4029.8825     -4358.1655    
     54900   291.49869     -22879.145     -4563.144      -4672.1868    
     55000   291.61998     -22587.58      -3726.9811     -4199.2782    
     55100   293.72932     -22023.32      -3844.3725     -3786.1042    
     55200   291.55018     -23112.488     -4858.3343     -4678.7438    
     55300   289.48132     -22182.485     -3552.3253     -3379.9655    
     55400   288.5863      -22055.362     -3887.7605     -3673.2081    
     55500   293.07091     -22808.82      -4710.5539     -4028.765     
     55600   292.6627      -22293.007     -3471.4385     -3451.5205    
     55700   292.45863     -22695.072     -4480.2868     -4220.9082    
     55800   296.09115     -22193.657     -3411.4211     -3668.8799    
     55900   293.46922     -22221.873     -3945.1138     -3837.4301    
     56000   287.83753     -22209.302     -3744.3827     -3535.6034    
     56100   292.31194     -21713.749     -2931.764      -2920.5967    
     56200   289.89812     -22365.538     -3809.4495     -3842.3338    
     56300   292.91543     -22538.551     -3667.0882     -3881.3158    
     56400   294.58518     -22712.902     -3747.4428     -4132.6967    
     56500   293.23168     -23478.442     -4804.4644     -4690.1368    
     56600   290.58837     -23308.109     -4232.0268     -4137.3349    
     56700   289.54129     -21936.231     -3011.0024     -3084.5477    
     56800   289.08849     -21775.511     -2544.459      -2572.0884    
     56900   291.55788     -22471.417     -3466.1637     -3503.6531    
     57000   293.9688      -22900.359     -3722.9462     -4015.4313    
     57100   294.21926     -22866.666     -4104.323      -4033.3299    
     57200   292.08006     -23102.724     -4293.7685     -4281.6514    
     57300   291.93278     -22954.617     -4011.3716     -3821.7322    
     57400   291.08035     -23103.286     -4123.762      -3938.6712    
     57500   291.71947     -23192.069     -4298.7217     -3964.7228    
     57600   294.17307     -22568.139     -3136.4933     -3292.2391    
     57700   294.06823     -22905.964     -3857.5466     -3737.974     
     57800   292.37843     -23217.259     -3897.0075     -3556.3101    
     57900   293.01379     -24120.49      -4700.5901     -4667.6284    
     58000   289.08009     -24349.39      -4631.578      -4673.0292    
     58100   290.69326     -23577.983     -3526.522      -3775.424     
     58200   289.06536     -23256.028     -3597.2501     -3685.8836    
     58300   292.04444     -22528.337     -2904.6196     -2700.8316    
     58400   294.57539     -22981.631     -3065.5809     -3029.6713    
     58500   293.04805     -23897.256     -4034.2786     -4015.9037    
     58600   288.5694      -23785.558     -4174.8954     -3776.3685    
     58700   287.17221     -23655.537     -4186.1808     -4356.1848    
     58800   290.84017     -23735.969     -3550.4428     -3858.6751    
     58900   291.38371     -23231.714     -3437.5782     -3577.1298    
     59000   288.52658     -23773.013     -4061.6919     -4315.1547    
     59100   293.59651     -23209.162     -3515.0318     -3460.6683    
     59200   289.03263     -23433.407     -3383.2504     -3886.2802    
     59300   289.15252     -24031.116     -3979.7396     -4030.6751    
     59400   291.85874     -24569.849     -4511.9127     -4452.4852    
     59500   293.59391     -24256.241     -4134.7476     -3922.4389    
     59600   290.39221     -23345.552     -3325.8355     -3053.7752    
     59700   291.35313     -24334.144     -3986.8657     -3747.3006    
     59800   291.88131     -24603.529     -4679.3982     -4190.2803    
     59900   290.25099     -23880.82      -2906.6198     -2798.2837    
     60000   295.15385     -24735.827     -4555.5509     -4347.3028    
     60100   294.76514     -24312.292     -4047.2028     -4193.4524    
     60200   293.53724     -24680.002     -4420.9379     -4276.2253    
     60300   294.01384     -24533.586     -4317.5832     -3949.5395    
     60400   292.12947     -24255.977     -3579.084      -3894.4974    
     60500   291.08097     -25040.273     -4841.5691     -4925.779     
     60600   289.80496     -23972.811     -3205.9572     -3509.1274    
     60700   291.35084     -24031.521     -3399.9509     -3371.5663    
     60800   291.44902     -24034.401     -3449.5982     -3356.6548    
     60900   290.75468     -24568.678     -3750.7857     -3948.1172    
     61000   292.28914     -24846.017     -4369.5233     -4269.6485    
     61100   289.78855     -24438.11      -3421.3368     -3267.3406    
     61200   289.5518      -24950.133     -4489.6788     -4376.5396    
     61300   291.82076     -25050.57      -4083.1279     -4270.1379    
     61400   292.93745     -24504.32      -3615.1692     -3814.7716    
     61500   288.76652     -24552.172     -3917.6548     -3739.7299    
     61600   290.88534     -25266.677     -4104.6946     -4386.3       
     61700   287.28723     -25029.938     -3954.5052     -3865.785     
     61800   292.7997      -25797.044     -4408.853      -4399.435     
     61900   295.15198     -25449.191     -4238.3391     -4374.3705    
     62000   292.3469      -25553.956     -4563.3015     -4376.3186    
     62100   290.91516     -25106.901     -4258.1001     -3667.719     
     62200   289.4961      -24216.92      -3230.4523     -3152.918     
     62300   287.65567     -25593.535     -4308.7522     -4483.002     
     62400   290.56577     -25156.271     -3491.083      -3330.9501    
     62500   289.14602     -25117.422     -3710.3658     -3832.4402    
     62600   288.82138     -25285.961     -3992.964      -3999.5214    
     62700   291.71274     -25575.837     -3966.296      -4093.4863    
     62800   291.42107     -25931.089     -4300.2805     -4266.542     
     62900   289.61255     -25521.94      -4392.3711     -4230.0932    
     63000   288.98666     -25626.322     -3990.966      -4413.2021    
     63100   291.01562     -25276.04      -3655.1023     -3445.9676    
     63200   293.43168     -25391.764     -3638.5591     -3844.5643    
     63300   292.609       -26128.329     -4659.5244     -5066.4838    
     63400   289.02943     -26448.565     -4847.977      -5229.2103    
     63500   289.92014     -25983.494     -4349.1568     -4847.6959    
     63600   285.83996     -25446.213     -3164.8295     -3536.6561    
     63700   289.20729     -24564.481     -2461.1304     -2811.7293    
     63800   292.98734     -25681.958     -3252.5824     -3157.2474    
     63900   289.10796     -25960.68      -4351.6023     -4216.8405    
     64000   292.6628      -27078.622     -5560.3197     -5382.6437    
     64100   293.31996     -27350.931     -5698.4467     -5716.0926    
     64200   291.7417      -26018.154     -4326.3795     -4039.0602    
     64300   294.99482     -25665.754     -3943.7758     -3502.9444    
     64400   289.67609     -25531.085     -3807.4946     -3284.8594    
     64500   287.76491     -25986.805     -4591.1827     -4234.5838    
     64600   288.06911     -25943.974     -4060.2418     -3607.9076    
     64700   291.07908     -24939.413     -2898.6383     -2455.9738    
     64800   294.27894     -26163.601     -3661.3912     -3567.1989    
     64900   295.82678     -26676.266     -4522.694      -4638.051     
     65000   288.9825      -26883.864     -4352.948      -4956.8281    
     65100   289.18336     -27271.281     -5089.9727     -5361.6974    
     65200   290.37122     -26213.912     -3240.7542     -3789.7624    
     65300   294.23398     -26030.483     -3184.8707     -3401.6821    
     65400   292.52942     -25684.273     -2591.915      -3217.692     
     65500   288.50187     -26404.292     -4270.9218     -4319.4447    
     65600   287.96439     -27522.443     -5098.9774     -5276.4605    
     65700   288.09728     -27489.962     -4583.9809     -4504.0144    
     65800   293.1709      -26020.158     -3415.6633     -3153.3865    
     65900   291.91027     -26230.584     -3846.8071     -3386.6502    
     66000   292.35239     -26987.174     -4387.8418     -4043.3181    
     66100   291.09171     -27372.903     -4814.0869     -4758.3454    
     66200   289.20122     -27333.221     -4539.2022     -4390.0752    
     66300   286.49899     -26166.593     -3478.9354     -3416.0016    
     66400   287.19192     -26742.114     -3479.6398     -3465.3336    
     66500   287.34048     -27081.134     -4082.5191     -4128.7934    
     66600   291.93052     -27780.622     -4815.2494     -5039.5581    
     66700   291.77332     -28117.405     -5662.1174     -5549.9899    
     66800   295.21713     -27513.512     -4235.5033     -4450.2221    
     66900   294.19984     -26886.274     -3487.8655     -3832.5055    
     67000   288.64913     -26660.789     -2940.311      -3617.5101    
     67100   288.63147     -27161.525     -3895.2733     -4044.8016    
     67200   289.08894     -26783.122     -3464.1565     -4020.1052    
     67300   290.85381     -27976.326     -4978.9432     -4934.4025    
     67400   290.42317     -27215.736     -4021.8054     -3702.7742    
     67500   291.57953     -26977.412     -3520.9464     -3334.9578    
     67600   288.34641     -26481.726     -3077.9936     -2944.4767    
     67700   287.72163     -27097.235     -4019.6903     -3584.7521    
     67800   287.91435     -28225.578     -5125.8608     -4882.8769    
     67900   287.54425     -27245.753     -4213.6754     -3757.589     
     68000   290.39065     -27985.529     -4692.8186     -4662.8891    
     68100   292.44873     -28118.982     -4460.8606     -4944.1417    
     68200   291.27128     -27714.797     -3639.0571     -4322.2021    
     68300   291.66139     -28140.301     -4688.5731     -5236.6885    
     68400   290.14103     -28146.586     -4097.8282     -4613.1857    
     68500   289.05193     -27495.819     -3221.7678     -3495.5365    
     68600   294.98569     -27188.599     -3206.2153     -3393.1205    
     68700   292.79017     -27673.394     -4061.6861     -3937.0157    
     68800   290.31865     -29057.733     -5627.7209     -5309.3086    
     68900   288.20303     -28338.188     -4697.3314     -4663.6543    
     69000   288.90832     -28769.355     -5299.9703     -4826.6268    
     69100   292.52924     -27852.897     -4021.3211     -3667.5334    
     69200   292.32049     -28068.647     -4514.444      -3561.0456    
     69300   293.97627     -27422.226     -3849.3265     -3641.8025    
     69400   291.82367     -27962.49      -4448.1314     -3861.009     
     69500   289.22588     -28724.648     -4515.1078     -4344.8149    
     69600   287.62706     -28096.58      -3845.1271     -4111.0214    
     69700   288.27933     -27680.252     -3109.7683     -3843.322     
     69800   287.19656     -27909.118     -3396.199      -4197.8501    
     69900   290.84193     -28667.924     -4227.4287     -4668.1634    
     70000   292.00917     -28427.248     -3971.3172     -4586.5363    
     70100   294.84849     -28658.594     -4118.6961     -4590.0273    
     70200   291.33038     -27871.927     -3210.2621     -3449.2847    
     70300   287.2443      -28290.97      -3513.0565     -3877.4151    
     70400   288.96478     -29166.585     -4643.5143     -4472.0665    
     70500   293.3686      -28806.688     -4563.2968     -4366.176     
     70600   293.29979     -28602.73      -3925.8671     -3839.7107    
     70700   288.4215      -29400.104     -5212.4771     -4649.3677    
     70800   289.69903     -29043.611     -4404.5332     -3996.5831    
     70900   289.98193     -29074.872     -4555.8993     -4371.4408    
     71000   286.11089     -28253.501     -3832.315      -3088.5997    
     71100   290.82031     -27821.688     -3511.379      -2870.9851    
     71200   292.17509     -29146.169     -4564.3591     -4211.2711    
     71300   289.91636     -29361.78      -5053.6359     -4723.5522    
     71400   286.70701     -29172.434     -4182.5684     -4224.3538    
     71500   288.78672     -29682.217     -4591.6963     -4870.0155    
     71600   289.04041     -28869.37      -3830.2728     -4223.0433    
     71700   291.31555     -29096.746     -3007.5169     -4099.8713    
     71800   294.49946     -29332.371     -4351.3605     -4619.9617    
     71900   291.54028     -28904.028     -3887.5417     -4250.0968    
     72000   290.62206     -29666.108     -4574.5941     -4757.4245    
     72100   290.21701     -30520.134     -5564.7697     -5241.5675    
     72200   287.39481     -29963.283     -4623.1198     -4463.1064    
     72300   289.20801     -28889.915     -3974.9752     -3198.8045    
     72400   293.77287     -28949.125     -3617.8125     -3125.8322    
     72500   293.3068      -29310.284     -4050.9891     -3875.7025    
     72600   292.94912     -29528.489     -4194.4409     -4132.698     
     72700   294.25857     -30165.67      -4781.0141     -4694.8372    
     72800   289.00339     -29949.826     -4756.8495     -4219.0142    
     72900   288.07506     -30599.749     -5449.1265     -5742.1102    
     73000   291.35105     -30131.612     -4716.8332     -4802.9003    
     73100   294.76583     -29351.931     -3740.4988     -4193.5431    
     73200   291.24002     -28704.419     -2602.2687     -3197.1132    
     73300   291.95985     -29352.737     -3642.1229     -3816.8927    
     73400   286.54371     -30367.327     -4592.4684     -4661.3257    
     73500   291.21899     -30585.408     -4941.9026     -4635.1194    
     73600   295.73464     -30572.06      -4932.3558     -4603.7014    
     73700   292.86246     -30513.312     -4898.59       -4827.5338    
     73800   290.57688     -29480.863     -3497.378      -4000.2377    
     73900   287.71412     -29628.758     -3937.9416     -3525.2636    
     74000   289.64114     -29798.51      -4558.5404     -3702.1941    
     74100   292.37568     -29110.883     -3617.2146     -3321.8881    
     74200   292.29661     -30101.518     -4938.8631     -4456.3935    
     74300   287.11097     -30690.653     -4753.0081     -4301.9075    
     74400   287.78383     -31001.355     -5386.183      -5445.739     
     74500   291.49257     -30701.238     -4923.6229     -4820.8819    
     74600   292.28717     -29867.309     -3441.9811     -3584.2103    
     74700   294.40172     -29745.231     -3666.5079     -3823.9894    
     74800   293.32368     -30049.712     -3466.7556     -3593.6879    
     74900   291.11581     -30562.274     -4279.3804     -4822.3063    
     75000   290.68048     -30845.384     -4390.5327     -4816.1348    
     75100   292.83323     -31276.325     -4904.7716     -4960.7836    
     75200   288.62243     -31553.221     -5363.2902     -5445.2248    
     75300   292.44168     -30622.06      -3704.312      -4097.8168    
     75400   294.1399      -30386.58      -4246.6488     -4603.8005    
     75500   294.72994     -30637.281     -4283.9781     -4164.2145    
     75600   288.29991     -30369.381     -4053.9742     -3687.2439    
     75700   292.62975     -31166.704     -4946.2211     -4500.3486    
     75800   288.13596     -30847.534     -4168.4649     -4003.598     
     75900   288.57403     -31007.643     -4511.0706     -4409.6434    
     76000   292.35408     -31438.233     -5096.2767     -4967.058     
     76100   291.64353     -31246.674     -4494.128      -4445.3882    
     76200   292.77231     -31530.687     -5155.9065     -5106.4794    
     76300   289.41239     -30132.883     -3034.5578     -2765.3554    
     76400   291.61736     -30886.54      -4220.4323     -3950.5415    
     76500   292.24143     -31108.515     -4416.1834     -4373.2078    
     76600   289.29063     -30589.341     -4069.7342     -4317.309     
     76700   291.53537     -30614.325     -4139.1943     -4411.1143    
     76800   294.00991     -31703.321     -4714.4235     -5104.3835    
     76900   293.16286     -31995.492     -5248.5823     -5006.6393    
     77000   290.63891     -32003.891     -5287.0276     -4859.6687    
     77100   288.34556     -31273.528     -3603.1271     -3442.3952    
     77200   291.02811     -30624.642     -3336.3565     -3365.9792    
     77300   291.84262     -31428.476     -3787.6062     -3539.5798    
     77400   291.9686      -32345.065     -4890.0162     -5468.3735    
     77500   292.86214     -32480.434     -5230.9919     -5533.4345    
     77600   289.99396     -32008.276     -4345.4032     -4575.4292    
     77700   290.30877     -32098.008     -5014.8125     -4829.9901    
     77800   292.04928     -31974.434     -4611.6714     -4523.8213    
     77900   289.26156     -31648.979     -4276.815      -4223.9628    
     78000   289.86589     -30945.501     -3439.1831     -3255.8406    
     78100   292.96781     -31412.21      -4305.1505     -4087.4315    
     78200   290.88505     -32746.018     -5444.2178     -5571.3087    
     78300   288.35474     -32603.62      -4915.4718     -4730.5922    
     78400   289.50979     -32617.442     -5124.4164     -4925.1104    
     78500   288.06962     -31719.474     -4065.8144     -4223.0075    
     78600   291.98537     -31181.24      -3575.1381     -3468.9889    
     78700   290.62855     -31625.539     -4664.7332     -4457.9719    
     78800   292.22479     -30965.046     -3504.5144     -3282.8578    
     78900   288.78505     -32097.839     -4458.947      -4360.8071    
     79000   290.06013     -32750.47      -5230.7884     -5140.8184    
     79100   290.15151     -33018.299     -4749.5975     -5009.753     
     79200   293.70043     -33020.815     -4515.3556     -5004.4934    
     79300   295.85055     -31847.84      -3711.9721     -4085.3611    
     79400   291.80569     -31422.337     -3178.5004     -3530.6683    
     79500   290.52824     -32725.719     -4468.9899     -4710.9666    
     79600   290.72598     -33047.353     -4507.2784     -4720.8426    
     79700   291.94184     -32929.226     -4506.3283     -4744.8585    
     79800   293.73437     -32439.169     -4198.6248     -3748.3953    
     79900   295.97038     -32473.47      -3800.7021     -3591.2284    
     80000   293.09508     -32758.146     -4857.796      -4696.0645    
     80100   289.8342      -33055.133     -5389.0721     -4927.7688    
     80200   290.04485     -33007.217     -4724.577      -4574.397     
     80300   290.28158     -32458.3       -4436.3794     -4093.1075    
     80400   291.5723      -32255.051     -3564.559      -3673.981     
     80500   292.72662     -32666.02      -4466.0485     -4395.7146    
     80600   294.34563     -32714.494     -4719.0151     -4897.3355    
     80700   291.22889     -32481.228     -4318.0454     -4240.1523    
     80800   296.20522     -32756.147     -4448.9487     -4326.1422    
     80900   289.62248     -33065.992     -4455.5305     -4362.1686    
     81000   291.5625      -33294.818     -4777.3504     -4965.2013    
     81100   292.58599     -33681.828     -5278.4563     -5506.3726    
     81200   292.61568     -33139.524     -4523.5023     -4557.2614    
     81300   293.79477     -32634.963     -4039.6947     -3945.9971    
     81400   294.28825     -32850.772     -4177.806      -3867.5291    
     81500   289.48415     -33228.336     -4680.1706     -4806.0309    
     81600   289.41505     -33543.452     -4823.7684     -4905.0295    
     81700   291.59143     -33961.226     -5471.0015     -5363.6189    
     81800   292.23375     -33252.341     -4333.697      -4196.992     
     81900   293.96101     -32421.817     -3581.0839     -3819.8117    
     82000   290.47235     -33036.254     -4337.2548     -4518.765     
     82100   290.81088     -32911.6       -4018.4532     -4006.3949    
     82200   288.32004     -34231.877     -5323.1879     -5352.7648    
     82300   290.4798      -32905.276     -4011.8725     -4349.3013    
     82400   293.17169     -32968.346     -3795.3513     -4191.3337    
     82500   290.22349     -33491.254     -4674.2419     -4772.2898    
     82600   291.6916      -33206.813     -4404.3256     -4407.2007    
     82700   292.62528     -33330.059     -4201.659      -4443.4014    
     82800   292.68347     -34292.565     -5138.6793     -4982.0381    
     82900   293.09608     -34053.906     -4698.971      -4418.9702    
     83000   287.14609     -34442.421     -5692.4086     -5083.6106    
     83100   291.1207      -34230.127     -5038.2504     -4555.6594    
     83200   293.63842     -33805.38      -4501.3706     -4281.2694    
     83300   291.15281     -33543.306     -3916.9336     -3658.3909    
     83400   292.43967     -34200.927     -4312.0602     -4166.8264    
     83500   287.15456     -34230.192     -4654.0162     -4639.1503    
     83600   289.91156     -34285.413     -4454.7971     -4333.2788    
     83700   292.15465     -35085.494     -4686.4805     -4993.1571    
     83800   292.20838     -34695.896     -4542.3859     -4688.1187    
     83900   292.18788     -34603.631     -4899.1483     -5046.6809    
     84000   290.87754     -34770.367     -4755.0702     -5356.9302    
     84100   292.82128     -34086.005     -3873.9612     -4304.1264    
     84200   287.57414     -35222.979     -5033.7902     -5439.9096    
     84300   290.325       -34759.944     -4821.2787     -4876.2074    
     84400   289.80484     -34702.714     -4942.0226     -4950.7055    
     84500   291.55376     -34991.093     -5402.134      -5752.5998    
     84600   292.24548     -34318.631     -4286.0393     -4335.2783    
     84700   290.64627     -34239.512     -4016.8029     -4095.6617    
     84800   290.26671     -34785.456     -4731.9336     -4435.0295    
     84900   288.78474     -34329.618     -4262.2235     -3900.2288    
     85000   290.22123     -35376.91      -5913.8665     -5631.084     
     85100   290.2495      -35238.606     -6250.5151     -5746.087     
     85200   290.51383     -34888.525     -4928.7844     -4351.241     
     85300   291.78371     -34587.775     -4309.3084     -4252.3379    
     85400   289.69987     -34159.937     -3784.3972     -3501.202     
     85500   286.73862     -34301.581     -4002.4982     -3791.5688    
     85600   286.86001     -35329.123     -5246.5337     -5112.0271    
     85700   292.17443     -35933.736     -5559.3503     -5491.0841    
     85800   292.54132     -35061.18      -4746.512      -4851.6021    
     85900   292.28164     -35379.64      -5093.4172     -5244.5362    
     86000   290.0047      -34922.646     -4239.9166     -4554.1818    
     86100   286.69921     -35081.286     -4077.4183     -4109.1229    
     86200   288.17467     -35360.002     -4367.9101     -4596.1909    
     86300   291.62921     -35501.413     -4500.9006     -4638.6798    
     86400   293.82929     -35313.364     -4525.8685     -4795.3695    
     86500   291.68912     -36102.991     -5147.2958     -5711.9479    
     86600   290.51303     -35898.392     -5233.5196     -5566.4837    
     86700   292.01677     -35648.797     -4573.7739     -5088.0239    
     86800   291.34342     -35593.725     -4506.7749     -4960.1434    
     86900   290.65723     -35517.262     -4034.0551     -4408.5868    
     87000   294.1731      -35344.1       -4175.2751     -4027.5864    
     87100   289.58318     -36092.41      -5039.6666     -5261.7901    
     87200   293.12191     -35706.298     -4241.3018     -4077.7795    
     87300   293.73256     -36189.666     -4978.7283     -4372.6885    
     87400   288.60404     -35782.771     -4708.3742     -4185.0489    
     87500   290.01467     -34998.486     -4096.2402     -3941.3428    
     87600   288.0472      -36300.212     -5159.4464     -4637.722     
     87700   291.5393      -35982.49      -4911.5492     -4552.9927    
     87800   292.19238     -36417.039     -5418.8512     -5008.0498    
     87900   292.86044     -36697.051     -5184.9165     -5351.6852    
     88000   290.22015     -35156.343     -3555.7587     -3498.0169    
     88100   290.81207     -35963.695     -5024.8992     -4499.3704    
     88200   288.65586     -36235.561     -4747.0949     -4459.5212    
     88300   286.3378      -35978.843     -4515.3602     -4269.2005    
     88400   292.56889     -36037.729     -4312.3115     -4439.1802    
     88500   294.66043     -36480.68      -4468.0573     -4864.1784    
     88600   292.48239     -36991.762     -5349.8476     -5767.159     
     88700   289.5189      -36620.71      -4948.6556     -5450.4572    
     88800   288.40993     -36359.053     -4723.1837     -5221.2973    
     88900   292.12944     -36038.465     -4184.4464     -4506.5012    
     89000   291.8944      -35172.177     -2862.3102     -3359.1198    
     89100   288.88969     -36453.36      -4806.5159     -5071.7346    
     89200   290.29935     -36922.922     -4984.3601     -5330.6581    
     89300   290.45916     -37387.075     -5615.8391     -5738.3873    
     89400   295.97895     -36895.453     -4988.438      -5281.4424    
     89500   291.43816     -35842.862     -3606.0412     -3649.2058    
     89600   291.54385     -37010.828     -4852.0579     -4705.7723    
     89700   293.97278     -36416.615     -3925.683      -3933.2861    
     89800   288.74553     -36502.127     -4436.3095     -4250.2184    
     89900   289.92399     -36993.562     -4948.9286     -4495.6819    
     90000   293.98982     -37050.092     -4753.3673     -4545.8114    
     90100   295.15837     -38298.954     -6329.7412     -6053.236     
     90200   292.4731      -37285.85      -5389.5275     -4773.9346    
     90300   293.3857      -36331.539     -4051.728      -3949.0467    
     90400   289.22413     -36795.42      -4968.3583     -4636.3215    
     90500   289.17859     -36998.519     -4497.7812     -4090.9185    
     90600   289.30146     -38468.423     -5736.4173     -5316.0298    
     90700   292.84284     -37909.655     -5356.0995     -5010.1961    
     90800   292.32183     -37445.346     -4626.2008     -4448.7822    
     90900   291.14521     -37190.166     -4812.6821     -4641.1093    
     91000   292.37901     -37505.389     -4381.202      -4802.0437    
     91100   293.78481     -38003.767     -5221.5069     -5273.6528    
     91200   285.41454     -37448.043     -4304.7272     -4656.898     
     91300   287.95147     -37445.326     -4528.1133     -5089.9233    
     91400   290.56789     -37472.088     -4368.8861     -4908.1908    
     91500   290.84791     -37827.571     -4791.5832     -4930.2188    
     91600   288.93693     -38183.363     -5119.3495     -5341.7623    
     91700   289.29276     -37234.723     -4052.9627     -4342.8561    
     91800   288.41791     -37959.633     -4395.5076     -4455.882     
     91900   290.56025     -38449.003     -5296.9306     -5431.0424    
     92000   292.15273     -38063.568     -5093.984      -5274.4995    
     92100   290.77072     -37859.815     -4871.9465     -4960.6075    
     92200   290.93563     -37498.349     -4033.2827     -4263.9594    
     92300   290.3741      -37681.163     -4497.4096     -4454.9387    
     92400   291.34085     -38282.98      -5088.3365     -5075.169     
     92500   285.09352     -37369.747     -4047.2554     -3917.4192    
     92600   288.33576     -38800.239     -6132.7677     -5916.4727    
     92700   294.85952     -38686.247     -5307.3301     -5543.2893    
     92800   296.22874     -38439.459     -4896.3122     -4094.8731    
     92900   289.91233     -38028.096     -4220.1441     -3830.5648    
     93000   287.48673     -38663.153     -4750.6001     -4352.8384    
     93100   288.99272     -39358.024     -5595.4251     -5634.7137    
     93200   291.65253     -38163.408     -4738.6345     -4611.5904    
     93300   289.9607      -37558.568     -4081.9282     -3962.1222    
     93400   291.40843     -38273.044     -4402.0848     -4235.3504    
     93500   289.39726     -38114.416     -4292.7933     -4590.784     
     93600   291.47995     -38959.697     -5161.2837     -5303.39      
     93700   288.64579     -39443.028     -5555.3011     -5614.0131    
     93800   288.71205     -38850.227     -4876.9423     -4830.1155    
     93900   290.25084     -38490.977     -4587.9251     -4506.3327    
     94000   291.27726     -38428.556     -4272.526      -4320.2207    
     94100   289.5958      -38549.026     -4321.574      -4499.731     
     94200   288.83482     -39132.625     -5233.8388     -5051.5831    
     94300   288.35253     -40001.972     -5868.3103     -5889.7208    
     94400   287.07701     -39212.565     -5075.4991     -4996.5554    
     94500   290.81154     -37887.946     -3567.1443     -3657.3784    
     94600   289.83113     -38227.509     -3585.319      -3629.1782    
     94700   291.49655     -39077.412     -4673.4435     -4635.3892    
     94800   293.00977     -39646.979     -4946.2706     -5350.1925    
     94900   292.37841     -39798.025     -5451.3339     -5481.0095    
     95000   292.94975     -39467.079     -4598.4295     -4620.8404    
     95100   292.84285     -39655.932     -4739.0496     -4855.2101    
     95200   295.03267     -39923.48      -5112.6547     -5354.7092    
     95300   293.74755     -39812.318     -5373.6353     -5573.024     
     95400   294.28061     -39063.062     -4439.5326     -4402.7815    
     95500   286.89003     -39078.898     -4437.4753     -4494.3727    
     95600   292.46451     -39421.26      -4236.8552     -4176.617     
     95700   287.80945     -39082.102     -4134.9464     -3744.3801    
     95800   293.55045     -39772.778     -4941.8625     -4747.6426    
     95900   289.33262     -39976.867     -5447.6751     -5306.2712    
     96000   295.29692     -39718.587     -5277.1097     -5311.7924    
     96100   291.00771     -39956.829     -5050.5502     -4996.4184    
     96200   287.7429      -39471.203     -4275.0096     -4073.5458    
     96300   290.2144      -39747.922     -4781.2309     -4574.6471    
     96400   292.26312     -39524.37      -4576.7975     -4621.9449    
     96500   290.95706     -39900.671     -4966.5684     -5140.6506    
     96600   292.3528      -40454.192     -5433.59       -5022.886     
     96700   287.74184     -39978.345     -4975.0942     -5367.4673    
     96800   291.45139     -39488.225     -3758.3428     -4146.907     
     96900   288.99077     -39674.02      -4290.0605     -4466.2652    
     97000   291.41129     -40789.118     -5703.4897     -5760.646     
     97100   290.0423      -40314.526     -5390.5377     -5218.8707    
     97200   292.0826      -40007.322     -4641.8536     -4778.011     
     97300   291.81346     -39469.096     -3688.5647     -3953.881     
     97400   289.5073      -39800.436     -4191.6489     -4557.6216    
     97500   289.58271     -41509.225     -6149.6858     -6501.6115    
     97600   292.53601     -40543.995     -5148.9957     -5237.279     
     97700   293.0675      -41415.952     -6165.7873     -6057.866     
     97800   294.41921     -39576.824     -4009.1604     -3709.8462    
     97900   290.84489     -39939.829     -3986.6369     -4125.4065    
     98000   289.51767     -40976.971     -4999.713      -5003.4177    
     98100   292.8335      -40713.139     -5160.6261     -5183.516     
     98200   291.54448     -40498.707     -5138.6661     -5309.2985    
     98300   295.18868     -40013         -4642.8532     -4349.1522    
     98400   288.73768     -40258.104     -4531.9103     -4038.7093    
     98500   291.01614     -40713.487     -5162.6176     -4609.5106    
     98600   290.37807     -40951.151     -4870.8911     -4786.6483    
     98700   292.06877     -41242.152     -5274.4635     -5015.0607    
     98800   291.73895     -40837.489     -5533.6142     -5219.3152    
     98900   295.12076     -41176.924     -5489.9415     -5023.7277    
     99000   291.96234     -41565.596     -5155.7453     -4936.4459    
     99100   289.99329     -40773.696     -4738.1736     -4868.99      
     99200   290.66217     -41157.229     -4619.9276     -4692.6354    
     99300   291.71623     -41520.71      -5246.1196     -5633.3191    
     99400   292.21456     -41422.483     -5035.5803     -5323.2443    
     99500   293.62511     -41216.114     -4787.9023     -5240.8971    
     99600   292.75254     -41098.73      -4704.1143     -5247.0215    
     99700   292.4096      -41480.083     -5192.5542     -5358.106     
     99800   287.75446     -41324.939     -4970.6928     -5059.8044    
     99900   289.42986     -41932.515     -5483.8699     -5398.4273    
    100000   292.91242     -41438.087     -5092.2864     -5194.3925    
    100100   292.42631     -41385.771     -4285.2181     -4755.7219    
    100200   293.96105     -41369.379     -4740.7372     -4911.8266    
    100300   292.30528     -42088.466     -5776.3466     -5617.472     
    100400   289.5779      -42544.333     -6006.5532     -6148.757     
    100500   291.67766     -41512.145     -4477.8205     -4522.6504    
    100600   293.48439     -41059.186     -3829.6657     -3516.5292    
    100700   289.70971     -41672.959     -4115.445      -3941.6371    
    100800   289.82701     -42198.841     -5062.1947     -4963.3581    
    100900   292.59106     -42968.772     -6393.6874     -6147.78      
    101000   291.63646     -42266.587     -5960.6499     -5541.1754    
    101100   291.38759     -42567.199     -5830.3296     -5483.8127    
    101200   292.29132     -41315.159     -4725.5791     -4120.4181    
    101300   290.90291     -41818.104     -4362.722      -4080.8434    
    101400   288.34646     -42041.987     -5102.4199     -4565.0869    
    101500   291.36258     -42110.432     -4824.2978     -5005.6206    
    101600   290.43242     -42304.164     -5311.4656     -5478.7135    
    101700   293.20012     -42699.151     -5016.254      -5256.2119    
    101800   291.49577     -42372.23      -5020.1984     -5420.1873    
    101900   290.94958     -42641.268     -5391.555      -5747.153     
    102000   287.70306     -42348.148     -5058.3959     -5311.0094    
    102100   288.9478      -42304.394     -5044.9059     -5246.7468    
    102200   289.18837     -41925.129     -4240.8227     -4517.4603    
    102300   291.80793     -42503.501     -5014.4564     -5067.1738    
    102400   290.57987     -42572.339     -5447.2642     -5574.3511    
    102500   291.17441     -42732.549     -4651.7588     -5092.2704    
    102600   290.05781     -43719.746     -6949.7238     -7131.9895    
    102700   290.94        -42933.408     -4981.1986     -5110.6577    
    102800   292.69099     -42818.719     -4965.8846     -4618.341     
    102900   290.89588     -42301.118     -4401.7961     -4501.5764    
    103000   289.91225     -42521.219     -4349.5531     -4416.8654    
    103100   289.89687     -42975.521     -4854.4521     -4957.6616    
    103200   290.05045     -42455.627     -4191.4627     -4022.0011    
    103300   291.90298     -43500.092     -5704.433      -5580.3266    
    103400   291.57847     -43205.686     -5086.2958     -4972.2019    
    103500   287.64673     -42905.865     -4813.0467     -4351.467     
    103600   289.45799     -43270.334     -5749.9114     -5501.5906    
    103700   289.29967     -43452.299     -5727.8256     -5588.8594    
    103800   290.43895     -43186.834     -5623.0419     -5518.4381    
    103900   290.74531     -41703.202     -3580.8083     -3636.3576    
    104000   289.39495     -42006.025     -3572.1565     -3666.2686    
    104100   291.17313     -43518.017     -6043.8183     -5720.9635    
    104200   289.71083     -43357.658     -5829.451      -5362.2547    
    104300   289.77079     -44613.994     -6731.1347     -6378.5432    
    104400   291.42729     -43675.336     -5259.2175     -5607.408     
    104500   292.43567     -42878.237     -4239.0678     -4394.2184    
    104600   292.00753     -42973.209     -4413.398      -4476.6436    
    104700   288.09941     -43204.982     -5330.5488     -4931.7805    
    104800   289.10565     -44676.735     -6171.6147     -6119.033     
    104900   291.90897     -44124.96      -5964.0094     -5555.4695    
    105000   293.31847     -43414.852     -4467.6915     -4410.483     
    105100   293.10316     -43617.299     -4910.9939     -5062.6022    
    105200   290.88854     -43762.805     -4921.1384     -5064.9412    
    105300   289.77617     -44089.69      -5603.4336     -5865.8737    
    105400   291.38318     -44485.131     -5914.4074     -6212.5779    
    105500   291.44476     -43549.624     -4729.0491     -5153.5373    
    105600   294.08461     -43156.186     -3636.0242     -4509.8703    
    105700   293.68841     -43413.75      -4200.4897     -4546.2534    
    105800   290.12752     -44530.946     -5295.2845     -5995.2865    
    105900   287.66425     -44823.398     -5628.6916     -6256.835     
    106000   289.80405     -44655.615     -5732.0293     -5891.5231    
    106100   291.65081     -43650.566     -5090.0236     -4879.0928    
    106200   290.16562     -43293.996     -4033.6419     -3857.4137    
    106300   293.78334     -44150.857     -4761.0467     -4997.7912    
    106400   289.98203     -45329.229     -6624.8781     -6372.2123    
    106500   291.01358     -44610.318     -5429.8523     -5235.1278    
[...]
   1484000   291.89709     -398.56117     -1817.2555     -1642.6743    
   1484100   289.37705     -370.65432     -1257.3202     -1312.3466    
   1484200   291.99268      532.3638      -628.46355     -628.41439    
   1484300   295.09912      442.4997      -612.19047     -1021.5018    
   1484400   290.07097      397.53372     -818.52203     -1028.8724    
   1484500   290.525        262.58871     -1070.7764     -996.09039    
   1484600   288.84103      479.42975     -944.7162      -1107.5094    
   1484700   289.41882      86.454098     -1317.557      -1338.103     
   1484800   292.07862      585.65412     -923.04425     -910.91349    
   1484900   292.01204      718.61156     -659.25711     -603.07762    
   1485000   294.51146      500.29117     -946.05269     -979.94302    
   1485100   293.48044      559.04208     -1011.8107     -1298.2832    
   1485200   292.59117      87.988346     -1463.7661     -1455.6023    
   1485300   288.79914      101.38058     -1353.6449     -1153.9015    
   1485400   291.74394      278.86132     -1346.453      -1145.4449    
   1485500   293.19508      893.27655     -598.64411     -483.35697    
   1485600   294.29671      1316.2462     -220.5212      -178.74177    
   1485700   287.71043      730.89183     -923.18789     -744.52064    
   1485800   285.79092     -305.00617     -2050.4196     -1762.8212    
   1485900   285.4165       50.495271     -1508.169      -1309.8213    
   1486000   291.55223      519.37182     -970.49383     -662.6983     
   1486100   291.58387      975.58879     -871.79509     -431.16148    
   1486200   292.50906      686.08917     -589.2165      -998.71021    
   1486300   291.60305      892.41344     -452.72497     -1010.0197    
   1486400   289.72434      267.31497     -907.93376     -1399.6465    
   1486500   289.59179      207.54331     -1303.4146     -1600.9596    
   1486600   291.1551       516.85956     -956.92794     -752.58849    
   1486700   291.35484      679.11475     -914.27645     -633.14203    
   1486800   290.46022      848.52271     -497.86895     -100.84577    
   1486900   289.96764      558.41225     -934.53784     -542.41059    
   1487000   289.05189      88.755556     -1453.3882     -1317.6313    
   1487100   288.22942      64.751244     -1124.5397     -1092.4248    
   1487200   291.82798      194.82117     -1405.9195     -990.29245    
   1487300   292.69496      110.24202     -1279.1706     -913.20138    
   1487400   292.6203       495.90257     -583.87329     -738.64647    
   1487500   290.25601      207.41505     -514.51042     -782.70187    
   1487600   288.19668     -48.016131     -1010.5723     -1458.6306    
   1487700   289.72414     -127.22414     -898.13512     -1282.3564    
   1487800   293.13795      155.60598     -1048.4214     -1113.5983    
   1487900   293.30871     -39.117069     -1064.3268     -973.57585    
   1488000   292.70934     -186.86146     -1531.9978     -1385.5402    
   1488100   293.9785      -175.14351     -1233.6898     -1032.8795    
   1488200   291.73052      91.894171     -839.58777     -847.25002    
   1488300   292.64138      146.7801      -1239.2222     -1098.3559    
   1488400   289.69086      343.6837      -378.87757     -330.00051    
   1488500   290.93599      155.89357     -707.72358     -798.0317     
   1488600   291.16789      190.07238     -689.32133     -732.25666    
   1488700   293.08554     -381.90244     -1305.1948     -887.5567     
   1488800   294.8284      -940.39522     -1574.4359     -1431.5187    
   1488900   291.58221     -213.60829     -749.76682     -762.55124    
   1489000   289.92111     -202.29076     -890.58795     -1027.2947    
   1489100   290.77652     -407.03976     -835.09641     -1009.8743    
   1489200   291.6275      -338.25342     -922.53079     -1073.2134    
   1489300   291.28908     -743.76111     -1547.2919     -1454.3359    
   1489400   293.12567     -195.58645     -657.72928     -1171.2992    
   1489500   294.47901     -122.05698     -711.00016     -849.41414    
   1489600   292.02132     -362.48595     -1094.5334     -711.58551    
   1489700   290.52163     -664.08787     -977.80377     -1243.018     
   1489800   291.06353     -1010.7459     -1063.0989     -1060.6608    
   1489900   289.1793      -916.6692      -1338.5131     -796.2414     
   1490000   290.51954     -769.02358     -981.68592     -954.88264    
   1490100   292.59528     -310.15834     -1167.5449     -828.73566    
   1490200   293.3934      -559.06218     -1403.6761     -1128.4657    
   1490300   289.28052     -848.77854     -1584.5271     -1356.127     
   1490400   291.46223     -398.66294     -945.59748     -565.14858    
   1490500   293.46485     -392.52496     -835.76968     -812.23239    
   1490600   292.95633     -229.2338      -505.58307     -931.12887    
   1490700   295.73564     -658.01876     -908.29554     -1346.6503    
   1490800   292.96325     -823.86974     -868.92118     -1840.6917    
   1490900   289.72689     -746.33969     -1051.7376     -1668.6339    
   1491000   293.22183     -229.69326     -1293.2424     -1255.0467    
   1491100   293.76265      165.58516     -591.08923     -498.86987    
   1491200   290.51255     -275.07167     -1108.4823     -775.98745    
   1491300   294.29877     -602.64357     -1722.6242     -869.23902    
   1491400   293.13753     -472.29712     -1596.2316     -1075.4053    
   1491500   286.94007      96.562476     -1016.6938     -763.6264     
   1491600   291.69677     -343.35506     -1109.4151     -906.54226    
   1491700   290.09377     -122.10632     -1125.5684     -1025.4455    
   1491800   290.82697      11.701438     -1039.0895     -1292.389     
   1491900   293.02497     -429.42239     -1078.6298     -1503.7095    
   1492000   296.59891     -135.48997     -1029.4752     -1062.0027    
   1492100   290.49651      196.08738     -756.67121     -978.10288    
   1492200   290.13582      49.303431     -1067.2578     -1345.8349    
   1492300   287.49194      50.144363     -505.99423     -1009.3       
   1492400   292.05439      5.2807972     -1032.4969     -1360.7281    
   1492500   290.91246      557.58039     -667.80812     -727.42445    
   1492600   290.84924      638.12538     -736.42222     -653.77205    
   1492700   292.71107      234.4812      -1384.5819     -806.33621    
   1492800   291.41237      273.49651     -1419.9996     -941.38631    
   1492900   289.81592      106.75206     -1752.8697     -1077.7641    
   1493000   288.79293      155.75606     -1321.7674     -1187.094     
   1493100   290.69357      847.19619     -442.02011     -764.82027    
   1493200   292.82279      792.33208     -759.32171     -585.80829    
   1493300   292.95729      653.76688     -453.2423      -548.20904    
   1493400   291.0678       524.80665     -957.85641     -1036.2719    
   1493500   287.0026       93.835723     -1278.8217     -1691.9254    
   1493600   289.78645      390.48438     -1023.6652     -1173.6231    
   1493700   294.17792      544.55849     -1095.2528     -956.0224     
   1493800   290.84015      680.69566     -1215.9332     -1223.3391    
   1493900   287.57383      493.73072     -1007.0419     -1108.686     
   1494000   287.10533      419.84433     -1229.8269     -787.24427    
   1494100   291.18943      864.82469     -1223.9994     -672.59619    
   1494200   292.15971      956.04042     -754.84569     -583.67459    
   1494300   290.26813      543.83688     -1305.6468     -1193.2895    
   1494400   290.421        761.37691     -944.21365     -923.8608     
   1494500   289.74322      600.30364     -436.83502     -928.8927     
   1494600   287.62413      258.35711     -1105.7928     -1231.6483    
   1494700   289.92359      477.8648      -313.77445     -779.08112    
   1494800   290.66444      477.82886     -1044.1186     -977.88992    
   1494900   291.37062      330.29244     -1352.3914     -1279.2063    
   1495000   292.40944      714.64756     -990.28399     -594.59484    
   1495100   290.81606      316.23924     -1241.2055     -1113.4411    
   1495200   288.91801      409.18552     -1161.98       -950.28607    
   1495300   288.38645      305.89724     -1036.0846     -989.83822    
   1495400   291.99953     -78.071576     -1136.4954     -928.94289    
   1495500   291.70576     -64.766587     -902.14324     -1060.7712    
   1495600   294.01278     -134.08672     -930.23977     -861.70987    
   1495700   290.65889     -235.9945      -1183.5496     -1008.2197    
   1495800   288.87678     -36.123799     -1136.232      -973.72708    
   1495900   291.41395     -365.20802     -1437.4079     -1514.3806    
   1496000   291.83481      11.440523     -627.65016     -703.84467    
   1496100   291.23735      61.834344     -730.89386     -1237.1163    
   1496200   294.19004     -186.83434     -964.0064      -1533.2921    
   1496300   288.47738     -185.94837     -902.51851     -1163.8638    
   1496400   289.84154     -187.59705     -915.78035     -836.75807    
   1496500   287.87517     -268.76105     -1177.9827     -947.71179    
   1496600   293.65872     -432.04319     -1629.6555     -1089.7684    
   1496700   292.00565     -948.44452     -1735.7693     -1706.4946    
   1496800   290.66561     -129.30854     -798.05201     -508.68146    
   1496900   288.38806     -633.15663     -1291.7665     -1142.969     
   1497000   288.36721     -187.1353      -1298.3117     -953.58575    
   1497100   292.55721      125.50408     -660.66952     -435.89787    
   1497200   292.64374     -684.81844     -1258.6763     -1338.652     
   1497300   290.6257      -702.27557     -924.46605     -1163.8696    
   1497400   291.89857     -1049.8709     -1521.4078     -1776.7574    
   1497500   291.55626     -584.95339     -1059.6381     -1354.6947    
   1497600   290.07456     -282.64562     -522.16691     -933.39836    
   1497700   288.54034     -694.0933      -863.98896     -1487.0175    
   1497800   287.9463      -598.70615     -934.96741     -1048.602     
   1497900   291.17021     -586.54465     -897.29984     -894.92726    
   1498000   293.0606      -661.42576     -1313.2826     -772.21121    
   1498100   293.53012     -612.65907     -1820.5154     -1516.6072    
   1498200   290.93956     -147.64278     -1074.3115     -558.5489     
   1498300   289.34947     -759.13098     -1427.8926     -1354.8239    
   1498400   287.67818     -248.25198     -639.30708     -741.87144    
   1498500   290.42568     -597.57194     -899.60915     -1069.5099    
   1498600   292.61273      88.438729     -489.09097     -629.10165    
   1498700   291.84235     -459.82503     -949.7989      -1324.3717    
   1498800   289.45282     -933.23007     -1760.6064     -1552.5915    
   1498900   289.3608      -440.72082     -1151.5619     -1257.2038    
   1499000   291.76998     -669.00631     -1056.0272     -1440.9185    
   1499100   292.3816      -65.380037     -710.02527     -956.585      
   1499200   290.63099      196.87667     -409.46053     -706.72381    
   1499300   288.12028     -533.61951     -1266.6763     -1026.6524    
   1499400   287.79887     -230.56304     -1389.2579     -1008.9483    
   1499500   292.86049     -334.17379     -1204.6247     -1046.7984    
   1499600   292.06637     -68.647888     -884.74077     -978.46531    
   1499700   290.67048      57.20154      -1094.8611     -1134.4338    
   1499800   292.9241      -91.597428     -1275.4393     -1249.3497    
   1499900   289.86518     -599.2135      -1394.5659     -1319.1228    
   1500000   291.05102      73.877836     -1092.2369     -1031.5385    
   1500100   291.64205      275.65236     -750.27006     -474.87894    
   1500200   292.9547       95.81725      -1023.1321     -1074.4895    
   1500300   292.88432      395.39124     -698.12197     -804.00759    
   1500400   289.97842      413.38815     -854.25651     -1070.1285    
   1500500   289.5623       437.78251     -793.84873     -1053.4651    
   1500600   290.26969      585.28231     -619.05226     -599.15483    
   1500700   290.94387      209.1205      -1143.8104     -894.02654    
   1500800   295.83854      321.90685     -1296.7439     -965.80828    
   1500900   292.69624      703.82186     -832.84381     -624.14646    
   1501000   290.97341      579.74809     -1365.9238     -1074.2266    
   1501100   291.34627      535.34245     -1149.6001     -945.89805    
   1501200   290.2274      -9.6926927     -858.43873     -1252.5689    
   1501300   289.30167      67.834628     -990.52881     -1242.4979    
   1501400   291.83682      555.26796     -552.33528     -557.69407    
   1501500   292.01759      673.96197     -591.39362     -956.49808    
   1501600   289.96626      1116.8017     -387.46184     -490.63449    
   1501700   292.2103       105.71835     -1606.9291     -1744.9077    
   1501800   289.04099      256.51559     -1194.0448     -1541.0325    
   1501900   290.7448       668.5054      -1159.4553     -820.1856     
   1502000   290.68585      600.79082     -1053.3054     -839.74192    
   1502100   292.08759      562.8148      -778.32395     -524.87236    
   1502200   297.42617      406.2158      -1230.5973     -769.11973    
   1502300   293.10155      263.88855     -1212.6234     -1199.0878    
   1502400   288.46526      659.40188     -752.1595      -792.34969    
   1502500   292.01623      397.92849     -959.45046     -1143.0682    
   1502600   289.29519      860.22625     -75.58876      -479.71778    
   1502700   289.9174       856.43354     -556.65682     -1267.5026    
   1502800   293.33671      255.19977     -844.06752     -1037.1965    
   1502900   294.0586       167.49231     -1001.8139     -1326.3115    
   1503000   296.83582      211.9569      -1369.5756     -1392.1764    
   1503100   293.23338      498.99512     -1200.0323     -854.28912    
   1503200   289.90729      30.721518     -1585.0675     -1166.1592    
   1503300   290.01905      640.14449     -912.92042     -542.99556    
   1503400   291.67671      619.35802     -472.34254     -533.83242    
   1503500   292.08913      429.85203     -848.33269     -924.33429    
   1503600   293.54967      315.91932     -933.46678     -700.79532    
   1503700   291.00299     -50.666031     -1286.9864     -1152.7476    
   1503800   288.38248     -246.44543     -948.52385     -1463.268     
   1503900   288.45286     -473.6135      -1409.5767     -1927.5568    
   1504000   289.10548     -232.40168     -936.57289     -1136.1093    
   1504100   290.33752      271.92297     -434.0578      -618.1518     
   1504200   290.60011      212.49915     -676.97568     -348.21325    
   1504300   290.09178      16.156422     -1065.2276     -606.54203    
   1504400   291.31475     -662.17098     -1949.31       -1146.024     
   1504500   289.16764     -713.49395     -1561.6458     -1195.1605    
   1504600   292.15917     -331.2992      -1246.6626     -1098.57      
   1504700   289.81956     -148.83939     -809.88219     -1193.393     
   1504800   290.45453     -17.63679      -723.88699     -1050.852     
   1504900   290.44923      124.10138     -734.32949     -1123.9617    
   1505000   288.21882     -177.70691     -718.34298     -885.99691    
   1505100   292.13256     -906.26786     -1176.9553     -1388.0038    
   1505200   292.79971      8.5280328     -624.49463     -982.32703    
   1505300   293.134       -424.79127     -1122.9075     -1063.6457    
   1505400   289.65551     -838.58329     -1422.8157     -1079.3172    
   1505500   289.92385     -659.85372     -934.20311     -1140.2999    
   1505600   292.91124     -397.05548     -1160.9342     -918.22973    
   1505700   292.41828     -697.2059      -1604.4315     -1256.4925    
   1505800   294.7268      -351.83074     -1204.2454     -773.11091    
   1505900   289.95805     -589.75448     -1324.8973     -1386.6499    
   1506000   291.22788     -120.1232      -598.90764     -952.73003    
   1506100   292.26492      19.833071     -456.65697     -590.44108    
   1506200   293.57943     -592.10704     -1381.6304     -1316.7076    
   1506300   293.60457     -265.19594     -879.79893     -760.27877    
   1506400   291.77046     -716.80286     -1122.0902     -1152.339     
   1506500   290.07006     -676.45714     -970.15093     -1030.3097    
   1506600   293.00324     -711.82012     -1241.7286     -1281.7466    
   1506700   291.63057     -459.44223     -1305.3135     -1228.4274    
   1506800   293.41619      100.21421     -733.91234     -962.61639    
   1506900   296.41777     -285.35499     -871.691       -921.00982    
   1507000   292.80689     -410.24424     -888.26904     -1081.9991    
   1507100   288.6156      -106.99611     -896.70582     -925.10413    
   1507200   288.64663     -591.83441     -1487.5607     -1378.9867    
   1507300   289.05216      46.552561     -1012.1525     -1069.3168    
   1507400   290.78422      21.322747     -993.78276     -909.45937    
   1507500   292.80129      320.49069     -737.35259     -380.65053    
   1507600   292.91764     -414.34525     -1024.6472     -1077.787     
   1507700   289.18149     -315.95145     -1213.4874     -1108.3738    
   1507800   285.6519      -222.59582     -1196.8785     -1403.2244    
   1507900   290.01136      440.09408     -685.26703     -942.94489    
   1508000   293.95045     -49.195261     -909.72527     -1107.8071    
   1508100   291.9719      -2.4102659     -597.48848     -999.62044    
   1508200   292.08577      118.94822     -935.48862     -953.28223    
   1508300   290.16344      53.295175     -1135.1354     -1281.754     
   1508400   290.22802      42.422847     -965.2088      -1164.4784    
   1508500   290.88075      179.80926     -1125.9184     -894.57837    
   1508600   291.61664      776.22116     -595.39236     -508.12858    
   1508700   292.42691      922.57625     -814.02019     -467.67586    
   1508800   292.71241      250.17657     -1449.3817     -1342.4893    
   1508900   290.10936      557.71729     -1256.0917     -750.14627    
   1509000   289.15061      483.28075     -988.86984     -867.95516    
   1509100   291.5442       469.77258     -913.20006     -1111.8097    
   1509200   293.20552      682.29567     -856.16664     -844.93143    
   1509300   292.32689      425.24986     -1091.0888     -1064.5502    
   1509400   289.90439      618.08489     -1046.7801     -980.14117    
   1509500   290.766        253.75717     -1225.6603     -1197.807     
   1509600   289.42114      509.59378     -938.11875     -1205.2976    
   1509700   289.68663      1080.3343     -683.22023     -920.17468    
   1509800   287.56984      1121.0179     -612.56535     -462.02917    
   1509900   289.06405      48.952009     -1469.7145     -1244.5968    
   1510000   292.62026      426.20484     -1169.0966     -1557.3626    
Loop time of 164089 on 1 procs for 1500000 steps with 13400 atoms

Performance: 1.580 ns/day, 15.193 hours/ns, 9.141 timesteps/s, 122.494 katom-step/s
12.5% CPU use with 1 MPI tasks x no OpenMP threads

MPI task timing breakdown:
Section |  min time  |  avg time  |  max time  |%varavg| %total
---------------------------------------------------------------
Pair    | 1.6368e+05 | 1.6368e+05 | 1.6368e+05 |   0.0 | 99.75
Neigh   | 69.52      | 69.52      | 69.52      |   0.0 |  0.04
Comm    | 1.5147     | 1.5147     | 1.5147     |   0.0 |  0.00
Output  | 2.5374     | 2.5374     | 2.5374     |   0.0 |  0.00
Modify  | 276.62     | 276.62     | 276.62     |   0.0 |  0.17
Other   |            | 58.8       |            |       |  0.04

Nlocal:          13400 ave       13400 max       13400 min
Histogram: 1 0 0 0 0 0 0 0 0 0
Nghost:              0 ave           0 max           0 min
Histogram: 1 0 0 0 0 0 0 0 0 0
Neighs:         933961 ave      933961 max      933961 min
Histogram: 1 0 0 0 0 0 0 0 0 0

Total # of neighbors = 933961
Ave neighs/atom = 69.698582
Neighbor list builds = 3885
Dangerous builds = 0
Total wall time: 45:36:49
