LAMMPS data file via write_data, version 2 Aug 2023, timestep = 10000, units = real

3126 atoms
7 atom types
2105 bonds
6 bond types
1138 angles
9 angle types
135 dihedrals
3 dihedral types

-11.680863670718374 59.91622871313732 xlo xhi
-12.058841260604733 12.058841260604733 ylo yhi
-12.058841260604733 12.058841260604733 zlo zhi

Masses

1 15.9994
2 1.008
3 12.011
4 15.9994
5 1.008
6 15.9994
7 1.008

Pair Coeffs # lj/cut/coul/long

1 0.119432 3.40025
2 0 0
3 0.252656 2.84916
4 0.0663016 3.58118
5 0.0282937 2.37341
6 0 0
7 0.119497 3.1

Bond Coeffs # harmonic

1 442.161 0.972
2 1109.29 1.12
3 399.792 1.43
4 400.034 1.53
5 179.254 0.971
6 155.354 1.42

Angle Coeffs # harmonic

1 47.5559 103
2 30.1731 109.5
3 47.694 109.5
4 55.1139 111
5 65.472 111.3
6 54.9931 110.3
7 55.0234 111.4
8 180.46 109
9 30.1731 110

Dihedral Coeffs # harmonic

1 0.301147 1 3
2 1.41491 1 3
3 0 1 1

Atoms # full

2927 976 2 0.413 -10.366574084995133 -5.435487871514144 -9.307363915075829 1 1 0
669 223 2 0.413 -5.329456922552608 -2.4394415192098418 10.082330812147884 0 1 0
2926 976 1 -0.826 -10.897093095832156 -5.30338900261771 -10.081435000017533 1 1 0
2782 928 1 -0.826 -5.8349968453067875 -4.932828825935324 -6.847220803474433 1 -1 1
3046 1016 1 -0.826 -9.655869865144748 -9.476058335811155 -10.653286406996397 1 1 1
2586 862 2 0.413 -5.985174764249325 -4.808198733527018 -10.175673372107125 1 0 1
431 144 2 0.413 -8.481657174620494 -6.926503987217653 -7.3933075443152765 0 2 0
230 77 2 0.413 58.14334868781899 -3.767083616803019 -11.376813815720121 -1 -1 0
231 77 2 0.413 59.67975483939468 -4.1537075511086226 -11.36668489100324 -1 -1 0
229 77 1 -0.826 58.97094874880515 -3.5300444966436046 -11.769665685352608 -1 -1 0
3047 1016 2 0.413 -9.823406962300238 -10.442519976838954 -10.818562882326772 1 1 1
1314 438 2 0.413 -8.274099551539276 9.016591564322201 -8.277188101170001 0 -1 2
1014 338 2 0.413 -4.788868458604635 -7.084293112317587 -7.413805651266796 0 1 0
1013 338 2 0.413 -3.831569614667817 -7.7671126345520065 -8.248083815583406 0 1 0
1012 338 1 -0.826 -4.763439088746031 -7.88653956246962 -7.949566047522353 0 1 0
2780 927 2 0.413 -6.405852670258903 -8.780021083852345 -8.790198222943776 1 -1 0
414 138 2 0.413 -10.492746570572319 -4.60420289928059 -5.264525809450455 0 0 1
2781 927 2 0.413 -6.952619820351005 -8.522312328883134 -10.222212952706629 1 -1 0
2779 927 1 -0.826 -7.104865014329414 -9.080237198087882 -9.419225405681209 1 -1 0
715 239 1 -0.826 -5.288353543315847 -5.570631829099362 10.369979054141139 0 0 -1
716 239 2 0.413 -5.465839604360386 -6.175461199854814 11.092830953307324 0 0 -1
667 223 1 -0.826 -4.485370583226704 -2.305319429026799 10.735761767538623 0 1 0
668 223 2 0.413 -4.5318106897660915 -3.0859098034482155 11.233521544097451 0 1 0
2585 862 2 0.413 -4.891758133696841 -5.571029622343392 -10.799178163788564 1 0 1
2584 862 1 -0.826 -4.98691716196593 -4.6869703540171175 -10.41379329826466 1 0 1
2054 685 2 0.413 -3.0648876576008988 -5.031508771853403 -6.048286106370181 0 1 -1
2053 685 1 -0.826 -2.8519557387945618 -5.943638416712507 -6.377851382153539 0 1 -1
2055 685 2 0.413 -3.1757385439505104 -6.4332794371627475 -5.6049737709001795 0 1 -1
1009 337 1 -0.826 -0.16337617407475236 -5.712922130444555 -3.930701146504643 0 0 1
893 298 2 0.413 -1.6024131485225794 -7.511598246164145 -7.50075411732289 0 0 0
824 275 2 0.413 0.6372873558866505 -5.798771925262949 -6.051809874648114 0 1 1
823 275 1 -0.826 1.3596803005255733 -5.903389704240499 -6.6616535823337575 0 1 1
825 275 2 0.413 1.0194404647386044 -6.736135937914352 -7.073661770849957 0 1 1
1011 337 2 0.413 -0.5098610303125817 -6.498667132021803 -4.38012970937609 0 0 1
894 298 2 0.413 -1.2153878021344493 -8.70384560632673 -6.753871856887814 0 0 0
892 298 1 -0.826 -1.020793742087596 -8.314321316646478 -7.633107900689653 0 0 0
2645 882 2 0.413 -1.8689204891046103 -9.190356602817436 -11.856177060454195 1 1 1
86 29 2 0.413 2.37365249075072 11.333273394651442 -5.770150925226599 0 -1 -1
2646 882 2 0.413 -0.7279579115391126 -9.597329846306865 -10.956124145797798 1 1 1
2644 882 1 -0.826 -0.8760675808342668 -9.233932499230493 -11.849972430622088 1 1 1
836 279 2 0.413 2.3135799257655467 -9.52977384105338 -9.510394556679831 0 1 0
105 35 2 0.413 0.5649904562190624 -11.141627203627683 -8.478523366284618 0 1 0
103 35 1 -0.826 0.9393053325833289 -10.227871142397788 -8.701129909817196 0 1 0
575 192 2 0.413 -3.149222080175628 -3.8159334136675547 -3.342070586616888 0 -1 0
104 35 2 0.413 0.2445778054982739 -9.736540328046607 -8.266300681746129 0 1 0
674 225 2 0.413 2.4237342081358495 -3.8390258783265896 -7.131016829498964 0 1 1
835 279 1 -0.826 3.1987098250306722 -9.236095697450962 -9.856782135265439 0 1 0
1462 488 1 -0.826 4.762466284641267 -7.1923395567188155 -8.819990210802064 0 0 1
1463 488 2 0.413 5.316445854030498 -7.741417751487871 -8.272206851358066 0 0 1
1464 488 2 0.413 4.049321111973494 -7.811432939861184 -9.06868931427593 0 0 1
290 97 2 0.413 4.356103176549066 -11.920662823594032 -11.441671510797848 0 1 0
1184 395 2 0.413 6.163888848848128 -5.044737211449903 -3.082076295495433 0 0 1
1183 395 1 -0.826 5.499263279713745 -4.290863103593212 -3.225077570810139 0 0 1
913 305 1 -0.826 6.482971121099027 11.732038528637307 -7.4075022940392214 0 0 0
914 305 2 0.413 6.186919625788757 -11.517600730710878 -7.1459528279502305 0 1 0
289 97 1 -0.826 4.537391576276093 -11.756616514919244 -10.46131176792748 0 1 0
1354 452 1 -0.826 4.390062172929444 -6.7628575125944135 -5.6815872507205105 0 0 0
1355 452 2 0.413 3.669184497357959 -6.531000147064148 -6.331146486179854 0 0 0
1356 452 2 0.413 5.045046699060194 -6.334076547470873 -6.155578746987947 0 0 0
2787 929 2 0.413 10.691393077044296 -8.682765879989907 -5.217439299312566 1 -1 -1
277 93 1 -0.826 3.5034916539471297 -9.285839532429932 -4.430196750006912 0 1 0
279 93 2 0.413 4.435339789890104 -9.55270637091643 -4.33773080191315 0 1 0
278 93 2 0.413 3.5966967847210416 -8.526967099561789 -5.083528552312784 0 1 0
1506 502 2 0.413 1.760227105251957 -4.75726643530843 -11.200862667129455 0 1 0
1195 399 1 -0.826 7.787616233070612 -2.68663206018765 11.567883170365418 0 -1 0
1197 399 2 0.413 7.399227448707297 -1.7480111771444076 11.36137024924434 0 -1 0
2731 911 1 -0.826 6.812872216108918 -9.823696856703426 -5.50869580024629 1 0 0
2733 911 2 0.413 7.737046460207871 -9.82727285432873 -5.815054720431368 1 0 0
2732 911 2 0.413 6.97372893726261 -9.283978571724871 -4.7197535606126495 1 0 0
2067 689 2 0.413 6.273929619073421 -6.2366839067193345 11.68413916745273 0 0 0
2066 689 2 0.413 7.1036202614159905 -5.898253954748538 10.44568675221316 0 0 0
2065 689 1 -0.826 7.054538390645135 -6.576898348176338 11.170912842960892 0 0 0
1185 395 2 0.413 4.696566129855842 -4.837306840034479 -3.3292995880273013 0 0 1
1149 383 2 0.413 7.160541867760685 11.637685645892443 -3.6680187316395143 0 -1 -1
1192 398 1 -0.826 8.42451706277425 10.012615387955872 -4.688134249655642 0 -1 0
1193 398 2 0.413 8.934934611825863 10.426309748750409 -5.395250066490091 0 -1 0
1505 502 2 0.413 1.7730998155102249 -3.2961495262843936 -11.759907278884846 0 1 0
46 16 1 -0.826 4.589698998002682 -6.165768613179587 -11.693938974484652 0 0 1
47 16 2 0.413 4.513355531070776 -6.595089500830854 -10.811617790053397 0 0 1
915 305 2 0.413 7.416349379440444 11.857696682410396 -7.289551070082361 0 0 0
2786 929 2 0.413 10.426878694100797 -9.997107793727787 -5.914244106908029 1 -1 -1
2785 929 1 -0.826 9.979725245884463 -9.096807964939718 -5.796565156085775 1 -1 -1
1170 390 2 0.413 13.893027054739594 -9.000759212557837 -5.0158072794763955 0 1 0
1168 390 1 -0.826 13.088843185977122 -8.532789118772678 -4.8772959485161875 0 1 0
1169 390 2 0.413 12.715862777892006 -9.16426085149945 -4.24943273232928 0 1 0
1142 381 2 0.413 14.374113389591297 -10.620449347915184 -0.516195298726439 0 0 0
1143 381 2 0.413 13.582865465141701 -10.266197845699226 -1.8361940404289114 0 0 0
1141 381 1 -0.826 14.456127055246856 -10.075399026386723 -1.3426953385352902 0 0 0
1579 527 1 -0.826 11.119878094380919 -9.026199429164407 -8.941982744438208 0 0 1
1580 527 2 0.413 11.014822054011258 -9.249452066170425 -7.965141939313214 0 0 1
1581 527 2 0.413 11.768920279756351 -8.268810248185765 -8.945041496323139 0 0 1
1026 342 2 0.413 13.779187353470757 11.836326207406184 -8.390190417364407 0 0 0
1024 342 1 -0.826 13.799375680198388 -11.322914575416926 -8.473302502736866 0 1 0
550 184 1 -0.826 15.81516758410202 -5.024934144768411 -11.028855453469276 0 1 1
1025 342 2 0.413 14.75080867364305 -11.123191077297463 -8.662660065806744 0 1 0
2044 682 1 -0.826 14.895707898136891 -7.3821096399667985 -8.83041064151095 0 1 0
1568 523 2 0.413 16.492778864658828 -2.9581014474768956 -6.395469587841161 0 0 0
552 184 2 0.413 15.382997987849404 -4.352472478730284 -10.527032463992446 0 1 1
1627 543 1 -0.826 18.695356206018722 -3.0365232044157118 -6.422125686238141 0 1 0
2443 815 1 -0.826 14.776268313943703 -6.35775601842609 -5.8050465923822125 0 0 0
2444 815 2 0.413 13.910298858228177 -6.602962354178019 -5.504851012057094 0 0 0
2445 815 2 0.413 14.734708736736614 -7.039511352785442 -6.559456138745626 0 0 0
551 184 2 0.413 15.219357354969251 -4.9443888927586634 -11.801771875135845 0 1 1
598 200 1 -0.826 14.415385767482718 -3.103772682945687 -9.555923836978877 0 0 0
1628 543 2 0.413 18.796646686403868 -2.563000451005136 -7.23942577720283 0 1 0
600 200 2 0.413 14.903522590394687 -3.4966112098884334 -8.783787913099479 0 0 0
1983 661 2 0.413 16.36526488154465 -10.48672550068262 -6.589526864314157 0 1 1
1982 661 2 0.413 15.035196741907953 -11.32307945998624 -6.348836103321599 0 1 1
1567 523 1 -0.826 15.645007905033204 -3.3912048918587807 -6.670121098376068 0 0 0
2100 700 2 0.413 13.801518748784169 -6.7556844843206365 11.26201715131045 0 1 -1
2098 700 1 -0.826 13.296308625142707 -5.89118988736003 11.428277682926819 0 1 -1
2099 700 2 0.413 13.133738534465476 -5.665836846296611 10.506033227891564 0 1 -1
474 158 2 0.413 18.731599651719225 -6.117176948580842 -9.028420654230256 0 1 1
472 158 1 -0.826 18.56834487072595 -6.402645287560253 -8.099333438407843 0 1 1
2046 682 2 0.413 14.814362373530571 -8.215627053277322 -9.379620979144564 0 1 0
2045 682 2 0.413 14.5911645305792 -6.656268978263983 -9.525998439999583 0 1 0
473 158 2 0.413 17.568482446168208 -6.36008909642557 -7.976395238423241 0 1 1
1629 543 2 0.413 19.47530555567789 -3.5725617312257274 -6.433322672989119 0 1 0
1341 447 2 0.413 22.539066825205303 -7.838730742282846 -7.332585128945839 0 1 0
1339 447 1 -0.826 22.084061164336653 -7.969177239957075 -6.4427300567180446 0 1 0
1340 447 2 0.413 22.803413066007366 -8.24771414246228 -5.873966970658553 0 1 0
781 261 1 -0.826 20.297086300631143 -5.729138471168801 -6.127033466849328 0 0 0
782 261 2 0.413 20.90997543440634 -6.517583916599667 -6.163697483961335 0 0 0
943 315 1 -0.826 16.909477375627638 -10.746432371806984 -8.713761158618258 0 1 2
783 261 2 0.413 19.57886788709585 -6.048331938200694 -6.730761086005177 0 0 0
1717 573 1 -0.826 18.045258528841934 -8.792964493497335 11.748984588457448 0 1 0
12 4 2 0.413 21.83724354707448 -4.464038742764055 10.141272013444528 0 0 -1
944 315 2 0.413 17.406381418715753 -11.614907922348467 -8.763956344524528 0 1 2
945 315 2 0.413 17.70580480342528 -10.158950392980573 -8.889947735025821 0 1 2
1900 634 1 -0.826 19.593098076600022 -9.753534587504001 -7.986184611596914 0 1 0
1901 634 2 0.413 20.04233353934131 -9.050522920065488 -8.46347846774506 0 1 0
1885 629 1 -0.826 24.437350340211538 -6.2341920139543 -8.154435205194808 0 1 0
1886 629 2 0.413 24.998986644308957 -6.165457476908153 -8.99544924665473 0 1 0
1887 629 2 0.413 23.996389567187656 -5.3924967430377615 -8.257701222860547 0 1 0
2522 841 2 0.413 20.588864989808748 -5.302788514524216 -10.154790756482573 0 1 1
1620 540 2 0.413 26.644874767984867 -3.2177349060718825 -10.571387371836574 0 0 0
1618 540 1 -0.826 27.314706625619245 -3.0438548903629776 -9.850701157560747 0 0 0
1619 540 2 0.413 26.740913799062028 -2.99230395730668 -9.078300289979065 0 0 0
80 27 2 0.413 24.925572464614355 -7.8448107979302195 -4.328062418109544 0 -1 0
81 27 2 0.413 24.661078698367284 -9.254557209581467 -4.515797575397663 0 -1 0
79 27 1 -0.826 24.151443816964168 -8.45332471222007 -4.349521047980097 0 -1 0
1570 524 1 -0.826 23.564299928446395 -11.601476890992663 -7.992152802209397 0 3 1
1571 524 2 0.413 24.392513565664288 -11.246156317497194 -7.740811016368191 0 3 1
1572 524 2 0.413 23.303245776407472 -10.874879260043805 -8.562846514353799 0 3 1
1275 425 2 0.413 20.74740720175737 -4.435839005446934 -4.829043058808978 0 0 0
1902 634 2 0.413 20.17264854911844 -9.869172506736971 -7.182112936950916 0 1 0
2095 699 1 -0.826 19.431665975184007 -9.029419527660238 -3.2237499675491748 0 1 0
2096 699 2 0.413 19.33226998126374 -9.091264924576636 -4.174840142684988 0 1 0
1944 648 2 0.413 26.04736268586779 -9.181132932988778 -10.680244615503874 0 0 0
1942 648 1 -0.826 25.893580807109664 -9.993592913339585 -10.1650391039901 0 0 0
1626 542 2 0.413 28.070450074570928 10.070389143625153 -4.017660362297157 0 -2 0
2537 846 2 0.413 30.31044534803881 -5.985086348710324 -4.794896681078402 0 1 1
2536 846 1 -0.826 30.265388684362655 -6.419064941071404 -5.654666636690991 0 1 1
1625 542 2 0.413 29.3883587216285 10.309494962924834 -4.419515679482864 0 -2 0
1668 556 2 0.413 28.896794691347857 -6.367925227453889 -9.00305344485588 0 0 0
1667 556 2 0.413 29.84920948374456 -6.532211408439523 -10.220884073859514 0 0 0
1666 556 1 -0.826 29.279790734058366 -7.060355677174408 -9.636089875529581 0 0 0
2513 838 2 0.413 31.630773994295645 -11.068651316546134 -4.509330750714561 0 0 1
2500 834 1 -0.826 30.763090125804666 -9.493991344692176 -8.890283343675847 0 1 0
1913 638 2 0.413 27.817436829720997 -3.54704334466183 -6.327040403978603 0 0 1
1912 638 1 -0.826 28.70048350772285 -3.9551048386484453 -6.239677407846621 0 0 1
2512 838 1 -0.826 32.05948771624665 -11.807671157857262 -5.089358848896134 0 0 1
2502 834 2 0.413 30.06698913214656 -8.898814981273132 -9.228325272381458 0 1 0
998 333 2 0.413 26.803147899706126 -7.28516487654304 -12.000549697479032 0 0 1
997 333 1 -0.826 26.736531377511078 -7.3230273100772205 -11.005403695918972 0 0 1
999 333 2 0.413 27.664653888849955 -7.078741506701687 -10.76299092072414 0 0 1
2501 834 2 0.413 31.477722502913743 -8.93653170765863 -8.564774735874618 0 1 0
1914 638 2 0.413 28.986011535424105 -3.6780953113833377 -7.152843332768951 0 0 1
1943 648 2 0.413 26.787373903901724 -10.008712076541165 -9.849551802398906 0 0 0
2028 676 2 0.413 28.0019464854101 -8.838167514734423 -4.882834057527214 0 1 0
2026 676 1 -0.826 28.6333780890006 -8.462035368131325 -4.295289780150818 0 1 0
2027 676 2 0.413 29.07425570842272 -7.937266720426371 -4.9421654884542 0 1 0
2691 897 2 0.413 31.58153631451635 -11.234158440031418 -8.740526499381154 0 0 0
2689 897 1 -0.826 31.75788710362552 11.940319314280078 -9.111760437013956 0 -1 0
2538 846 2 0.413 29.750219422467914 -5.725347227310324 -6.087931343473145 0 1 1
2613 871 2 0.413 25.575449351353726 -7.599087157630991 -6.925643171492163 0 1 1
2611 871 1 -0.826 26.33877065882534 -8.038246051085357 -6.508808397870621 0 1 1
2612 871 2 0.413 26.85442171767174 -8.264421077710047 -7.33969156280292 0 1 1
1624 542 1 -0.826 28.609551669063542 10.862925189072445 -4.1155858481293075 0 -2 0
2454 818 2 0.413 29.488955412593 -11.02831387761616 -9.725774626492523 0 -1 1
2453 818 2 0.413 28.94248420586404 -11.57094424148836 -10.978376145884395 0 -1 1
2452 818 1 -0.826 28.58364204045246 -11.258566030994496 -10.1230863916265 0 -1 1
2557 853 1 -0.826 28.00172991563654 -4.809179826427445 10.644042116741272 0 0 0
2558 853 2 0.413 28.041417790713695 -5.811426122532353 10.667490162611832 0 0 0
2559 853 2 0.413 28.566610414783824 -4.459359844499526 11.365171000162801 0 0 0
2514 838 2 0.413 32.68061757130849 -11.288474560821738 -5.626125273962663 0 0 1
1554 518 2 0.413 30.10428629789881 -9.49198710891364 -3.6472439247575004 0 -1 1
2365 789 1 -0.826 33.242360646193525 -7.763704948716789 -8.62274170198659 0 1 1
2367 789 2 0.413 33.95116463740512 -7.1993926931356595 -8.98135821010903 0 1 1
2158 720 1 -0.826 33.93267099689069 -10.563557869814222 -7.115766867231151 0 0 -1
2159 720 2 0.413 34.48462839712972 -10.189074157516215 -6.415656261624454 0 0 -1
2160 720 2 0.413 34.31631099305129 -9.948110999095165 -7.795236475174206 0 0 -1
1648 550 1 -0.826 34.92945378846126 -4.984781335065482 -8.770913064308678 0 0 0
883 295 1 -0.826 38.85997071814623 -9.837317951162609 11.897028513422915 0 -1 -1
1878 626 2 0.413 36.94532233978602 -6.629792533446751 -9.702323652403697 0 1 0
1876 626 1 -0.826 37.58924442072654 -7.318977451104008 -9.55328779691335 0 1 0
1877 626 2 0.413 37.35092020174698 -7.957374364912034 -10.328744348394663 0 1 0
1649 550 2 0.413 35.01035893748129 -4.478080167336427 -7.909061987586455 0 0 0
2690 897 2 0.413 32.599201764892356 -12.021571315887007 -9.531065963175266 0 0 0
1535 512 2 0.413 35.18547164542542 -11.165645723953041 -10.910366565746122 0 0 1
2366 789 2 0.413 33.43592557742004 -7.409243568230144 -7.72553223048795 0 1 1
885 295 2 0.413 38.807292117882746 -9.980889809564498 -11.210798820626154 0 -1 0
1145 382 2 0.413 37.658671704119676 -10.92968018317752 -6.13396127461338 0 -1 0
1144 382 1 -0.826 37.66801002945657 -11.632375272882342 -6.820523354077408 0 -1 0
1146 382 2 0.413 37.406140477397294 11.738449802011829 -6.323070663840878 0 -2 0
1650 550 2 0.413 35.338352888338775 -4.338800444928555 -9.411052619637502 0 0 0
2415 805 2 0.413 34.48061899346753 -2.7392427044397927 -6.829323043814926 0 0 1
343 115 1 -0.826 31.55940850851278 -3.485508602088691 11.538319268592883 -1 0 -1
2176 726 1 -0.826 33.50616868165511 -7.361450866650538 -5.763795936934821 0 0 -1
2177 726 2 0.413 33.27197045727196 -8.275540726598996 -5.434458909264428 0 0 -1
2178 726 2 0.413 32.671130029874384 -6.94258077034274 -5.486923157827448 0 0 -1
2534 845 2 0.413 37.3216726052325 -8.308064771581385 -7.539533755452619 0 0 1
884 295 2 0.413 39.75256139553409 -10.248946877197024 11.743013287057375 0 -1 -1
1523 508 2 0.413 39.413137581755855 -6.891301839667714 -9.029779335120596 0 1 1
1896 632 2 0.413 37.75197685689782 -10.818885336511316 -8.706346422404796 0 0 0
2387 796 2 0.413 39.11703409155821 -8.983213234944962 -5.380845336523466 0 1 0
1881 627 2 0.413 41.68941087960458 11.534753014282781 -9.09335087943978 0 -1 1
2273 758 2 0.413 40.659716686674855 11.696052270481477 -11.551759964750499 0 -2 1
2272 758 1 -0.826 40.55458037337989 11.833053938624001 11.581606056111658 0 -2 0
2924 975 2 0.413 42.94210314923627 -8.724399981467212 -8.16876429447905 0 1 1
2925 975 2 0.413 41.61469993072915 -9.473342712347332 -8.154766022911547 0 1 1
2923 975 1 -0.826 42.15566525476596 -8.931221444536286 -8.804233537081837 0 1 1
2133 711 2 0.413 41.60948909894888 -5.967751618637779 -4.087321836082004 0 0 0
1879 627 1 -0.826 40.87457604362352 11.424805496102135 -9.680010662518365 0 -1 1
1880 627 2 0.413 40.727707768794545 10.439784498089917 -9.523308009573954 0 -1 1
1322 441 2 0.413 43.754040130683194 10.141904140944717 11.463005116474347 0 -1 0
1321 441 1 -0.826 43.38060258594357 11.040330561257154 11.707688400648115 0 -1 0
2285 762 2 0.413 43.21431463778099 -6.689815892894428 -5.9121736933383495 0 2 0
2329 777 1 -0.826 43.265792693921 -4.328977000575471 -10.658192147141056 0 -1 0
1323 441 2 0.413 43.55626371615562 10.980383725471636 -11.444129601928 0 -1 1
2132 711 2 0.413 41.11863054194729 -4.680527744977511 -4.2686369530451795 0 0 0
2131 711 1 -0.826 41.046731588208125 -5.357181524021767 -3.5830368344401906 0 0 0
2286 762 2 0.413 43.10968667224886 -7.959299758921397 -5.109008874434794 0 2 0
2284 762 1 -0.826 42.82900876975071 -7.029808202213887 -5.067631083101867 0 2 0
1524 508 2 0.413 40.68058967999987 -7.633540275326654 -8.664057267909133 0 1 1
1778 593 2 0.413 38.136092454577906 -2.6254582540000886 -5.570331457990807 0 0 0
1522 508 1 -0.826 40.37626926744417 -6.670926374787498 -8.80867083793003 0 1 1
2462 821 2 0.413 45.24087412858413 -10.162624640014029 -8.380211701203576 0 2 1
2463 821 2 0.413 45.1707979332783 -9.839477940793275 -6.943463800136363 0 2 1
2461 821 1 -0.826 45.02621978936102 -9.415076110198036 -7.818309193585855 0 2 1
533 178 2 0.413 44.00449364522964 -6.741280398174294 -8.567333561997392 -1 0 2
2388 796 2 0.413 39.94148503052075 -8.8211723634528 -4.014380644581831 0 1 0
2386 796 1 -0.826 39.59588053700793 -9.529166085329194 -4.627839790843613 0 1 0
2533 845 1 -0.826 37.542270905146964 -8.347513817465263 -6.597296061723786 0 0 1
2535 845 2 0.413 36.81477016936254 -7.72929042314623 -6.212564390576585 0 0 1
2330 777 2 0.413 43.5274631235534 -5.290752869670789 -10.914119406354823 0 -1 0
2269 757 1 -0.826 43.495340436883374 -7.174513903552753 -10.77346057201873 0 -1 1
2271 757 2 0.413 42.743990683780765 -7.529561141369957 -10.303824691869861 0 -1 1
2527 843 1 -0.826 41.14642018154744 -4.475667044713359 9.962852699546827 0 0 0
2528 843 2 0.413 40.479713862193044 -3.8043483284418933 9.748201226098182 0 0 0
2669 890 2 0.413 52.25991858982603 -10.318587197867274 -8.782043111386475 0 0 0
2390 797 2 0.413 47.64846553467178 -6.473742044345973 -8.500182197181068 0 1 0
2391 797 2 0.413 47.43750678857595 -7.494928115634655 -7.39553720301938 0 1 0
2389 797 1 -0.826 48.06771878039354 -6.791878277008575 -7.671486374626531 0 1 0
2994 998 2 0.413 51.79211776013088 -5.52434827076821 -6.5072562565562615 0 0 0
2993 998 2 0.413 51.698391671224385 -6.393359521141874 -5.260989277272671 0 0 0
2992 998 1 -0.826 52.20379813583408 -6.321827142237348 -6.095391674079777 0 0 0
3085 1029 1 -0.826 47.154209999621024 11.370736432184007 12.047717319770804 0 -1 -1
2185 729 1 -0.826 54.40672554564551 -11.528949126596189 -6.997406778198955 0 0 -1
500 167 2 0.413 50.49887973998607 -8.103293687059066 -8.874764841693425 -1 1 0
501 167 2 0.413 51.23085131901026 -8.843206772894392 -9.886589356724974 -1 1 0
108 36 2 0.413 53.47252680018533 -4.42175844711467 -5.453831961905297 -1 -1 -1
2668 890 1 -0.826 52.52094778405597 -10.333035195463177 -9.724670097110145 0 0 0
2670 890 2 0.413 53.42560062291927 -10.733859062202107 -9.75710776517937 0 0 0
499 167 1 -0.826 50.83001260831893 -7.945165907665245 -9.795086967030212 -1 1 0
2237 746 2 0.413 53.454586694457895 -7.375529575229397 -6.5995264983420965 0 0 0
2375 792 2 0.413 52.21283240548657 -10.587009331241871 -5.0037388356572 0 1 0
178 60 1 -0.826 50.596407849289704 -12.04452114459971 -5.8604557848298215 -1 0 1
180 60 2 0.413 49.89915034835457 11.792494317911252 -5.217925394274188 -1 -1 1
532 178 1 -0.826 43.437393918211484 -6.384320881218391 -7.787146770863352 -1 0 2
539 180 2 0.413 47.27329893748816 -7.110346754650812 -4.3917294755424 -1 0 0
2161 721 1 -0.826 50.318552664712335 11.032082916940983 -11.5539038061967 0 0 0
2163 721 2 0.413 49.96548202350206 10.710688387955646 -10.692494243602022 0 0 0
2162 721 2 0.413 49.79873435617496 11.858165427605346 -11.701547500458116 0 0 0
371 124 2 0.413 50.20897254071799 -9.076512391578943 -6.197528336082402 -1 0 -1
2374 792 1 -0.826 52.93637926690399 -9.90954058167268 -4.934463781605403 0 1 0
2376 792 2 0.413 52.555826130026794 -9.389665665022576 -4.198848678342862 0 1 0
372 124 2 0.413 50.4673157441765 -10.411129101524613 -6.755200515913934 -1 0 -1
370 124 1 -0.826 50.261190971249675 -9.4791928343627 -7.071320527778652 -1 0 -1
179 60 2 0.413 51.10644364276474 11.227318755665962 -5.850092559989276 -1 -1 1
2676 892 2 0.413 46.42163400074314 -11.55976286609729 -10.655452909279461 0 -1 0
2674 892 1 -0.826 46.33151846646334 -10.976907141200872 -9.863974220391919 0 -1 0
2675 892 2 0.413 45.647422858734856 -10.399251211188373 -10.240400616401063 0 -1 0
1062 354 2 0.413 45.72531299774921 -6.258496154284916 -9.925868894421866 0 0 0
1061 354 2 0.413 46.94750111857164 -6.240275815072054 -10.835286460220821 0 0 0
1060 354 1 -0.826 46.65999609975808 -5.883096312883366 -9.946818054369876 0 0 0
1917 639 2 0.413 47.09631915638455 -3.55400045208917 -10.346140393554744 0 0 1
92 31 2 0.413 49.95600814628292 -6.8189175346044655 -11.238656099514417 -1 0 0
1916 639 2 0.413 47.508263502436556 -2.0573202771808052 -10.313136603227482 0 0 1
1915 639 1 -0.826 47.8577191575991 -2.955603624153886 -10.530846594913656 0 0 1
3087 1029 2 0.413 47.52444995357523 11.09206784997502 11.166760199182036 0 -1 -1
106 36 1 -0.826 53.86369479643685 -3.4992545677244227 -5.478323255456021 -1 -1 -1
2236 746 1 -0.826 54.215787902148314 -8.038314410138343 -6.721562933932044 0 0 0
2238 746 2 0.413 53.9871889523398 -8.700398213341519 -6.082608874708454 0 0 0
2928 976 2 0.413 -11.604978263634413 -6.03061299449015 -9.935745854040341 1 1 0
430 144 1 -0.826 -9.379517298968311 -6.850027259595859 -7.724850474360519 0 2 0
432 144 2 0.413 -9.295643201412181 -7.650265909117423 -8.268108074126442 0 2 0
3070 1024 1 -0.826 56.12256163930652 -7.270170722556249 -10.779065444542791 0 1 0
3072 1024 2 0.413 56.14373301238624 -6.674629908281231 -10.045665254032992 0 1 0
2103 701 2 0.413 56.79367323820865 -5.719987092849696 -5.475326272346399 0 0 -1
2102 701 2 0.413 57.35495535920261 -4.342535358394879 -5.564465762840353 0 0 -1
2101 701 1 -0.826 56.88863538361293 -4.964745125965999 -4.879370433692611 0 0 -1
2147 716 2 0.413 57.477230740594685 -3.7323046086206517 -8.967679228899017 0 0 1
2146 716 1 -0.826 57.373772431494665 -4.5549972605863 -9.455165505492191 0 0 1
1960 654 1 -0.826 53.3581624974154 -6.072224563922109 -9.009019475561207 0 1 1
1962 654 2 0.413 52.63914285888257 -6.662814598576662 -9.192412947501873 0 1 1
1961 654 2 0.413 53.42219064753673 -6.3518565440335255 -8.11170000720784 0 1 1
2164 722 1 -0.826 57.13791313729194 -9.478599336888642 -6.400365397822684 0 1 0
2165 722 2 0.413 57.73036404138852 -10.23747101199345 -6.667974171073206 0 1 0
2166 722 2 0.413 56.377846952090316 -9.673451907739762 -7.006522575258701 0 1 0
2148 716 2 0.413 57.55664789733287 -5.044916697790752 -8.61300799834119 0 0 1
3026 1009 2 0.413 58.65139498169233 9.610610805048662 -1.112260414376844 0 0 1
3025 1009 1 -0.826 59.440855466895066 10.14865332168079 -1.3579080185278656 0 0 1
3027 1009 2 0.413 59.79096007895931 9.59112234816827 -2.0824545766607816 0 0 1
19 7 1 -0.826 58.186270503174136 -11.610442925491864 -8.168905626987712 -1 1 0
413 138 2 0.413 -10.490092529323231 -5.901510597485416 -6.014595228630027 0 0 1
68 23 2 0.413 59.319804918778836 -5.576940422123307 -2.5488385957129274 -1 1 1
2956 986 1 -0.826 57.09586032791879 -6.692379568138697 -7.499726830182442 0 0 0
2957 986 2 0.413 56.583575091642125 -7.455788243849955 -7.117112586047449 0 0 0
412 138 1 -0.826 -11.089194726819315 -5.390392991666877 -5.419948753969729 0 0 1
93 31 2 0.413 50.89461586575342 -5.778530080018092 -11.601458167468305 -1 0 0
91 31 1 -0.826 50.19863659165836 -6.315014652308091 -12.029139795366712 -1 0 0
2381 794 2 0.413 58.55460294903194 -8.20966589201943 -10.437505240141379 0 1 0
2380 794 1 -0.826 59.23890539648507 -7.997096853438343 -9.724879872132629 0 1 0
2382 794 2 0.413 -11.674002373900965 -8.710417565624022 -9.79168006718667 1 1 0
2727 909 2 0.413 -6.643239040106883 -2.7704383116815645 -8.519575978440889 1 -1 1
2783 928 2 0.413 -6.654516344550125 -4.939280026213941 -6.355288209764393 1 -1 1
2784 928 2 0.413 -5.4478747290634075 -4.213523529517217 -6.372168441151157 1 -1 1
3119 1040 2 0.413 -7.65937494829945 -3.7776242938572295 -4.606272629131644 1 1 0
3118 1040 1 -0.826 -8.064031070267585 -4.585091281007995 -5.080484099039088 1 1 0
2726 909 2 0.413 -6.112633194361516 -1.3313665080226258 -8.404298217489075 1 -1 1
224 75 2 0.413 -7.224416804993826 -0.21417836403666435 -11.511757306587809 0 0 0
225 75 2 0.413 -8.651521035113085 -0.31672896796152195 -10.968340722616002 0 0 0
223 75 1 -0.826 -8.05536573405422 -0.7491713495291901 -11.70250403570535 0 0 0
2698 900 1 -0.826 -9.919108101124932 -1.6072622354031996 -6.2632617714107806 1 0 0
2700 900 2 0.413 -9.008491617266206 -1.6197201816980016 -5.876175586032814 1 0 0
2699 900 2 0.413 -9.948320245324211 -0.7884127042190503 -6.7450103541896524 1 0 0
753 251 2 0.413 -6.556994206434751 -1.2594274983123732 -4.789520085484528 0 0 0
751 251 1 -0.826 -7.404289038903181 -1.541414973864164 -5.158428570625158 0 0 0
141 47 2 0.413 -7.8659707124536125 0.9118953819517621 -4.779363776936379 0 0 1
752 251 2 0.413 -7.0079694064834515 -1.7722524614530215 -6.060903572037903 0 0 0
140 47 2 0.413 -7.990724806395793 2.3550414735730385 -5.162802628641121 0 0 1
139 47 1 -0.826 -8.513185886350797 1.6199119493455498 -4.854045117964415 0 0 1
741 247 2 0.413 -5.005233235469563 0.9409890989879752 -8.980382117130628 0 -1 0
739 247 1 -0.826 -5.276282788226527 0.43417907324888994 -9.762157491826214 0 -1 0
2725 909 1 -0.826 -6.566815314612474 -2.015853079734333 -7.8767930081943 1 -1 1
128 43 2 0.413 -10.9787912669393 -0.9972239029927437 -4.002991029098333 0 0 0
3020 1007 2 0.413 -4.1414564450375275 1.7277775266563662 -3.8742510707366646 1 0 1
740 247 2 0.413 -4.904110323869776 0.8991976031675719 -10.564786430077147 0 -1 0
3019 1007 1 -0.826 -5.077294013376553 1.98221491449298 -3.7065015224934426 1 0 1
129 43 2 0.413 -11.65486012568592 -1.7904622265346148 -2.9389292252546686 0 0 0
127 43 1 -0.826 59.72886851525036 -1.2792301294983819 -3.70344536205915 -1 0 0
2137 713 1 -0.826 -6.740427831323964 -5.683458590838931 -2.59702740472872 1 0 0
2718 906 2 0.413 -7.80213298036748 -3.7516816719609167 -11.039512983158923 1 0 0
2717 906 2 0.413 -8.741882079980579 -4.335328100060193 -9.964807507008766 1 0 0
2716 906 1 -0.826 -7.756929610905388 -4.158544242027924 -10.141584986691548 1 0 0
720 240 2 0.413 58.863319703927765 1.1333566454147803 -8.112632662083858 -1 -1 1
718 240 1 -0.826 59.12561612933683 0.7696554561090831 -7.234634572846533 -1 -1 1
394 132 1 -0.826 -5.15110092865399 -4.59928868216997 -0.20230456562942664 0 1 0
573 191 2 0.413 -2.1781541168455263 -4.072739497317939 -10.222228721725719 0 0 1
571 191 1 -0.826 -2.5109509386769826 -3.4839515179465703 -9.510541444790052 0 0 1
572 191 2 0.413 -3.504697436150572 -3.6161636410841833 -9.721158373010844 0 0 1
362 121 2 0.413 -1.6359506235917305 -0.9589847401789022 -7.969277629444115 0 2 1