ITEM: TIMESTEP
0
ITEM: NUMBER OF ATOMS
60
ITEM: BOX BOUNDS pp pp pp
-2.5000000000000000e+01 2.5000000000000000e+01
-2.0000000000000000e+01 2.0000000000000000e+01
-2.0000000000000000e+01 2.0000000000000000e+01
ITEM: ATOMS id type xs ys zs
48 1 0.285884 0.340423 0.00583957
58 1 0.202882 0.35639 0.188771
10 1 0.0214571 0.0575681 0.360443
26 1 0.116749 0.4041 0.352187
46 1 0.00257493 0.0310428 0.546291
2 1 0.313213 0.107157 0.542345
5 1 0.0309363 0.422058 0.508102
3 1 0.210698 0.0305934 0.606916
30 1 0.345316 0.158106 0.616814
53 1 0.326754 0.0122121 0.726452
29 1 0.0449465 0.395897 0.716231
41 1 0.203866 0.308184 0.882771
54 1 0.104205 0.362711 0.836936
37 1 0.156919 0.0700487 0.935104
27 1 0.347203 0.0226067 0.920139
32 1 0.145266 0.778036 0.00867788
43 1 0.264123 0.762522 0.0969274
7 1 0.252457 0.5617 0.242344
55 1 0.0413949 0.603258 0.272537
25 1 0.051554 0.864203 0.268743
18 1 0.143121 0.681137 0.384337
57 1 0.0326225 0.978479 0.39978
31 1 0.0964803 0.554949 0.457004
42 1 0.144651 0.987885 0.58201
6 1 0.251835 0.981677 0.708608
52 1 0.201938 0.631606 0.780773
28 1 0.235343 0.870448 0.799258
60 1 0.348991 0.931826 0.818142
8 1 0.10214 0.675045 0.884139
56 1 0.322038 0.542128 0.935049
39 1 0.0884722 0.963745 0.989238
14 1 0.743334 0.000864169 0.27012
21 1 0.656747 0.421249 0.25711
33 1 0.747857 0.238727 0.369275
50 1 0.922576 0.333379 0.376491
20 1 0.694534 0.46074 0.399135
49 1 0.864211 0.000444543 0.461372
36 1 0.711405 0.189528 0.43001
34 1 0.749064 0.299561 0.467884
1 1 0.782326 0.397375 0.689724
22 1 0.868436 0.348694 0.799716
12 1 0.925572 0.281751 0.954912
47 1 0.989906 0.331033 0.986915
44 1 0.630114 0.50733 0.0967859
15 1 0.669022 0.695145 0.15685
11 1 0.977295 0.90511 0.114119
23 1 0.811012 0.815033 0.370392
13 1 0.89674 0.788339 0.337359
24 1 0.646873 0.945554 0.342573
45 1 0.833495 0.593879 0.465114
19 1 0.769558 0.737539 0.437103
35 1 0.892543 0.741037 0.534503
16 1 0.725483 0.824552 0.551101
38 1 0.893092 0.908802 0.550596
59 1 0.736931 0.924744 0.579649
51 1 0.982404 0.850879 0.731535
9 1 0.839652 0.701209 0.833977
40 1 0.864411 0.739492 0.914216
4 1 0.902063 0.800552 0.845083
17 1 0.808899 0.657866 0.958352
ITEM: TIMESTEP
100000
ITEM: NUMBER OF ATOMS
60
ITEM: BOX BOUNDS pp pp pp
-2.5000000000000000e+01 2.5000000000000000e+01
-2.0000000000000000e+01 2.0000000000000000e+01
-2.0000000000000000e+01 2.0000000000000000e+01
ITEM: ATOMS id type xs ys zs
35 1 0.0194813 0.217882 0.011155
47 1 0.231651 0.39641 0.0287302
30 1 0.252394 0.307464 0.130107
31 1 0.270042 0.445936 0.0912898
2 1 0.377298 0.204279 0.147552
48 1 0.227392 0.346144 0.267012
18 1 0.125922 0.117065 0.286242
49 1 0.00581279 0.244895 0.430646
5 1 0.103854 0.356688 0.384399
26 1 0.374229 0.335181 0.482553
52 1 0.277894 0.149343 0.506373
6 1 0.0752053 0.377493 0.535061
1 1 0.0344215 0.397623 0.686683
27 1 0.1734 0.101619 0.781871
37 1 0.304934 0.229532 0.760087
43 1 0.293481 0.856205 0.0469359
53 1 0.234013 0.956873 0.0374209
32 1 0.153504 0.892543 0.0805567
13 1 0.197171 0.690363 0.276237
7 1 0.370931 0.58687 0.274988
55 1 0.167143 0.799366 0.370708
29 1 0.257569 0.76724 0.574274
60 1 0.0471051 0.859765 0.624922
40 1 0.140942 0.69957 0.683987
56 1 0.373421 0.548365 0.783757
41 1 0.339251 0.676655 0.815985
12 1 0.0990568 0.84522 0.819851
3 1 0.0224159 0.946927 0.763369
58 1 0.327035 0.816117 0.835977
42 1 0.268946 0.986288 0.963985
39 1 0.771736 0.180885 0.0266057
50 1 0.82047 0.504421 0.173488
21 1 0.659365 0.273071 0.1934
44 1 0.928022 0.345839 0.252969
38 1 0.83827 0.023288 0.339572
19 1 0.883474 0.0946805 0.296741
23 1 0.661314 0.319814 0.423871
10 1 0.753241 0.156403 0.485356
46 1 0.916549 0.23392 0.503475
20 1 0.67935 0.31693 0.565722
54 1 0.947149 0.323623 0.520728
8 1 0.962019 0.392861 0.763837
9 1 0.843831 0.557901 0.0435988
59 1 0.976662 0.687471 0.0880025
45 1 0.648715 0.760266 0.116538
11 1 0.933984 0.792606 0.0981348
28 1 0.992647 0.788263 0.220748
24 1 0.66869 0.664295 0.219794
16 1 0.808677 0.814937 0.276103
14 1 0.622534 0.962972 0.326163
51 1 0.872884 0.942658 0.369827
34 1 0.871652 0.760236 0.593276
57 1 0.86522 0.977673 0.545546
33 1 0.719694 0.855663 0.649331
25 1 0.990174 0.993795 0.606751
4 1 0.66851 0.834962 0.73129
22 1 0.879484 0.970142 0.685423
15 1 0.644011 0.674295 0.872923
36 1 0.771046 0.510681 0.956202
17 1 0.914958 0.666688 0.972713
ITEM: TIMESTEP
200000
ITEM: NUMBER OF ATOMS
60
ITEM: BOX BOUNDS pp pp pp
-2.5000000000000000e+01 2.5000000000000000e+01
-2.0000000000000000e+01 2.0000000000000000e+01
-2.0000000000000000e+01 2.0000000000000000e+01
ITEM: ATOMS id type xs ys zs
47 1 0.0644496 0.0198505 0.02039
12 1 0.274242 0.0984157 0.0358238
2 1 0.250444 0.0151947 0.158699
26 1 0.143046 0.340612 0.236928
53 1 0.327678 0.448743 0.444753
57 1 0.0768384 0.171523 0.371998
5 1 0.0180242 0.0812652 0.257321
37 1 0.339597 0.0647051 0.479668
35 1 0.2975 0.156736 0.569573
7 1 0.380036 0.138472 0.691012
38 1 0.0958004 0.29769 0.674974
3 1 0.0993613 0.175321 0.833358
11 1 0.317215 0.208167 0.934724
42 1 0.00321437 0.0838403 0.666259
28 1 0.246279 0.982952 0.0482285
13 1 0.012218 0.754867 0.125142
32 1 0.306864 0.87127 0.0958094
48 1 0.304897 0.968779 0.316763
52 1 0.123673 0.746896 0.360817
18 1 0.07969 0.492947 0.286816
19 1 0.0642749 0.97072 0.559018
58 1 0.146445 0.721699 0.600209
31 1 0.151081 0.53354 0.708543
25 1 0.277404 0.520593 0.719624
56 1 0.142651 0.712987 0.688596
29 1 0.347178 0.716676 0.698967
40 1 0.124877 0.691994 0.824326
60 1 0.162054 0.948851 0.810077
30 1 0.379024 0.817456 0.933705
41 1 0.0935716 0.8834 0.969562
43 1 0.117828 0.508383 0.988641
51 1 0.000622136 0.988608 0.495248
15 1 0.899127 0.163987 0.0701642
17 1 0.866062 0.429786 0.0486055
50 1 0.867287 0.196267 0.163746
23 1 0.690684 0.317823 0.413943
44 1 0.901161 0.226805 0.404249
36 1 0.945696 0.391323 0.270709
21 1 0.772312 0.0456715 0.349342
4 1 0.881546 0.124552 0.398112
14 1 0.694014 0.0132052 0.184528
8 1 0.954597 0.0848732 0.924223
27 1 0.874487 0.0468644 0.660554
46 1 0.77244 0.168201 0.68796
20 1 0.694725 0.367407 0.704039
22 1 0.773493 0.399855 0.737287
1 1 0.984917 0.375419 0.799639
34 1 0.634322 0.432017 0.841242
9 1 0.872153 0.161912 0.882124
10 1 0.781126 0.320573 0.879117
49 1 0.68629 0.0170559 0.953642
54 1 1.00903 0.518766 0.0970218
33 1 0.895356 0.938704 0.0204913
39 1 0.725232 0.788946 0.140321
24 1 0.705827 0.908601 0.229921
55 1 0.953678 0.755733 0.446446
16 1 0.986739 0.812903 0.596868
59 1 0.842875 0.707525 0.789454
45 1 0.764901 0.812576 0.73403
6 1 0.841489 0.537207 0.866446
ITEM: TIMESTEP
300000
ITEM: NUMBER OF ATOMS
60
ITEM: BOX BOUNDS pp pp pp
-2.5000000000000000e+01 2.5000000000000000e+01
-2.0000000000000000e+01 2.0000000000000000e+01
-2.0000000000000000e+01 2.0000000000000000e+01
ITEM: ATOMS id type xs ys zs
28 1 0.268891 0.0786625 0.0804827
5 1 0.0197683 0.170322 0.0634475
47 1 0.15593 0.323858 0.124668
48 1 0.21909 0.133922 0.195944
38 1 0.158601 0.361408 0.241406
44 1 0.278816 0.407024 0.269812
35 1 0.292961 0.142719 0.385741
12 1 0.226201 0.238093 0.447193
40 1 0.253732 0.374408 0.00747254
43 1 0.239273 0.131331 0.563649
29 1 0.304927 0.0545019 0.65791
3 1 0.128319 0.161163 0.581569
4 1 0.265679 0.436366 0.593659
11 1 0.0249006 0.191744 0.712843
13 1 0.050716 0.382922 0.829179
37 1 0.25051 0.350133 0.511157
60 1 0.312927 0.849531 0.136433
18 1 0.211592 0.922302 0.164805
32 1 0.13944 0.560569 0.326528
36 1 0.12696 0.797044 0.277809
53 1 0.37492 0.559261 0.319442
58 1 0.138677 0.661452 0.354906
42 1 0.0307943 0.777719 0.491908
24 1 0.0925662 0.679269 0.470189
31 1 0.320794 0.539529 0.564809
41 1 0.112595 0.818034 0.508658
55 1 0.0400487 0.628063 0.587953
25 1 0.0574949 0.766845 0.706008
7 1 0.32316 0.990796 0.89602
30 1 0.198339 0.843558 0.92745
2 1 0.203102 0.754582 1.00593
39 1 0.00856545 0.840289 0.932875
26 1 0.861943 0.291662 0.0460912
10 1 0.761098 0.41349 0.024437
52 1 0.9338 0.116217 0.108649
33 1 0.852372 0.400443 0.128718
20 1 0.653191 0.0170963 0.180701
17 1 0.956534 0.354933 0.240784
22 1 0.895264 0.44781 0.184737
23 1 0.65474 0.444179 0.346895
14 1 0.660795 0.32994 0.459635
46 1 0.75712 0.0738869 0.544045
8 1 0.899745 0.144167 0.514338
15 1 0.940858 0.491843 0.562298
21 1 0.722481 0.0505475 0.644241
45 1 0.92295 0.447888 0.783538
49 1 0.854389 0.10325 0.863955
51 1 0.991882 0.0578817 0.898897
50 1 0.805463 1.00222 0.118187
6 1 0.96054 0.832233 0.323778
57 1 0.958518 0.978144 0.298571
56 1 0.839036 0.680788 0.462563
34 1 0.817539 0.632012 0.0352541
9 1 0.725897 0.941616 0.63134
19 1 0.964344 0.704394 0.815406
16 1 0.976349 0.83483 0.704508
59 1 0.78093 0.908329 0.810454
54 1 0.9403 0.602898 0.806547
27 1 0.626777 0.734907 0.962674
1 1 1.00132 0.556254 0.993825
ITEM: TIMESTEP
400000
ITEM: NUMBER OF ATOMS
60
ITEM: BOX BOUNDS pp pp pp
-2.5000000000000000e+01 2.5000000000000000e+01
-2.0000000000000000e+01 2.0000000000000000e+01
-2.0000000000000000e+01 2.0000000000000000e+01
ITEM: ATOMS id type xs ys zs
30 1 0.152531 0.131711 0.0998168
38 1 0.283528 0.150963 0.156381
21 1 0.0293274 0.276079 0.110522
1 1 0.375691 0.391313 0.0731827
47 1 0.207187 0.143584 0.181656
57 1 0.124807 0.21303 0.170312
48 1 0.277587 0.422009 0.248804
40 1 0.428847 0.480773 0.316638
60 1 0.288129 0.0664457 0.345834
44 1 0.148846 0.062532 0.416932
37 1 0.299327 0.49411 0.308832
11 1 0.249908 0.494825 0.426007
55 1 0.153679 0.40921 0.625814
53 1 0.384591 0.370814 0.664852
31 1 0.078841 0.368131 0.669413
54 1 0.0753273 0.491602 0.757593
4 1 0.298717 0.353611 0.839827
18 1 0.145476 0.348247 0.843165
13 1 0.0951949 0.0703133 0.918298
16 1 0.36403 0.593477 0.0702145
2 1 0.340817 0.747569 0.0557523
32 1 0.0984569 0.725516 0.224449
42 1 0.213516 0.80535 0.163387
39 1 0.136972 0.900413 0.257749
24 1 0.122969 0.827128 0.346984
12 1 0.0981803 0.639031 0.362693
58 1 0.139351 0.603883 0.58009
35 1 0.187207 0.722807 0.513008
28 1 0.0920491 0.843359 0.51485
15 1 0.357238 0.597123 0.633729
56 1 0.0639255 0.701276 0.63622
19 1 0.27775 0.758892 0.852009
41 1 0.0847275 0.927587 0.770922
29 1 0.0107553 0.573166 0.836896
36 1 0.209276 0.622398 0.804533
7 1 0.258765 0.962841 0.920291
33 1 0.89444 0.0197207 0.418459
50 1 0.71635 0.125348 0.0975514
52 1 0.677938 0.238111 0.0706278
34 1 0.873214 0.374356 0.194947
23 1 0.889634 0.115048 0.261274
22 1 0.710523 0.205371 0.30007
5 1 0.927815 0.124434 0.356488
17 1 0.889593 0.252345 0.482205
27 1 0.993604 0.0882651 0.00367703
3 1 0.913587 0.441808 0.560722
49 1 0.708559 0.196459 0.625505
45 1 0.624204 0.437575 0.672707
14 1 0.705535 0.0269625 0.745479
26 1 0.805198 0.212388 0.852755
43 1 0.791086 0.11556 0.934655
9 1 0.883936 0.0107102 0.554132
6 1 0.693983 0.924725 0.218578
20 1 0.714569 0.98074 0.452031
10 1 0.808969 0.978279 0.0164167
51 1 0.851239 0.777307 0.956243
46 1 0.672615 0.554043 0.575629
8 1 0.975796 0.919072 0.70418
59 1 0.975434 0.931 0.810723
25 1 0.772 0.786169 0.86535
ITEM: TIMESTEP
500000
ITEM: NUMBER OF ATOMS
60
ITEM: BOX BOUNDS pp pp pp
-2.5000000000000000e+01 2.5000000000000000e+01
-2.0000000000000000e+01 2.0000000000000000e+01
-2.0000000000000000e+01 2.0000000000000000e+01
ITEM: ATOMS id type xs ys zs
1 1 0.337763 0.0587132 0.0833938
60 1 0.37305 0.191435 0.0131362
58 1 0.0831669 0.470782 0.280179
55 1 0.229102 0.370022 0.115414
32 1 0.0660957 0.487371 0.0686922
39 1 0.350456 0.0373262 0.224753
42 1 0.125369 0.13977 0.234006
27 1 0.0404997 0.282972 0.274096
21 1 0.256247 0.426241 0.208468
33 1 0.048232 0.483322 0.478462
59 1 -0.0077669 0.501652 0.277987
9 1 0.117457 0.0178213 0.601586
40 1 0.201772 0.422956 0.694018
4 1 0.362699 0.461025 0.677794
56 1 0.203559 0.211661 0.675453
57 1 0.328607 0.104207 0.784718
38 1 0.226912 0.332203 0.752293
53 1 0.11346 0.356311 0.80875
16 1 0.361046 0.358357 0.820268
37 1 0.0253257 0.102467 0.892184
11 1 0.263135 0.325952 0.919626
12 1 0.128657 0.211239 0.98701
31 1 0.11234 0.302888 0.95058
24 1 0.00848312 0.323234 0.656506
18 1 0.194777 0.672254 0.0451985
48 1 0.335475 0.68444 0.26552
2 1 0.0845328 0.798854 0.206956
6 1 0.02404 0.677461 -0.00151427
30 1 0.327203 0.995724 0.135178
7 1 0.198552 0.825179 0.878881
29 1 0.146785 0.630539 0.529323
47 1 0.253181 0.895941 0.547329
35 1 0.0672521 0.598601 0.554666
34 1 0.0692146 0.716446 0.672576
15 1 0.271476 0.680927 0.683288
19 1 0.172172 0.62381 0.747763
13 1 0.322862 0.867778 0.844748
23 1 -0.00438101 0.857432 0.882861
41 1 0.117961 0.917841 0.500438
26 1 0.917655 0.466334 0.0494111
22 1 0.623439 0.262687 0.368828
17 1 0.703216 0.188671 0.456346
44 1 0.847865 0.179043 0.391563
3 1 0.731168 0.196356 0.957773
14 1 0.736522 0.179668 0.684013
10 1 0.764201 0.251802 0.837914
49 1 0.804624 0.358061 0.886525
50 1 0.754592 0.345226 0.999611
25 1 0.987523 0.902743 0.0441839
52 1 0.946434 0.605137 0.124621
8 1 0.930922 0.85153 0.121994
36 1 0.937766 0.923835 0.401563
5 1 0.685827 0.677025 0.466572
20 1 0.670395 0.783918 0.426862
46 1 0.825316 0.932214 0.459382
51 1 0.873503 0.634251 0.719565
54 1 0.660123 0.590193 0.838809
28 1 0.864586 0.553954 0.75459
43 1 0.977336 0.717737 0.844885
45 1 0.877678 0.845284 0.91566
ITEM: TIMESTEP
600000
ITEM: NUMBER OF ATOMS
60
ITEM: BOX BOUNDS pp pp pp
-2.5000000000000000e+01 2.5000000000000000e+01
-2.0000000000000000e+01 2.0000000000000000e+01
-2.0000000000000000e+01 2.0000000000000000e+01
ITEM: ATOMS id type xs ys zs
33 1 0.227917 0.0548329 0.0583072
11 1 0.0523018 0.114646 0.0695227
50 1 0.239661 0.378675 0.115642
60 1 0.235106 0.192783 0.242134
8 1 0.0723466 0.124089 0.327736
13 1 0.273613 0.139866 0.454384
55 1 0.361189 0.392395 0.403772
39 1 0.319075 -0.0011231 0.0275921
12 1 0.00486082 0.151101 0.00535462
32 1 0.205811 0.120256 0.581801
40 1 0.0875101 0.193262 0.527676
21 1 0.222188 0.489026 0.750313
47 1 0.344266 0.484085 0.726341
16 1 0.353437 0.093509 0.822237
31 1 0.0777291 0.163964 0.802603
56 1 0.27348 0.345694 0.77115
38 1 0.0436096 0.374448 0.864482
4 1 0.246849 0.446749 0.894972
28 1 0.0145799 0.212511 0.790159
53 1 0.324001 0.234252 0.909413
30 1 0.299871 0.0133232 0.888129
6 1 0.0119715 0.0337924 0.717617
35 1 0.0798995 0.75772 0.327359
1 1 0.268957 0.979316 0.113936
58 1 0.349357 0.936696 0.177169
29 1 0.272419 0.54883 0.480576
18 1 0.233224 0.715409 0.204899
48 1 0.128294 0.515057 0.298455
27 1 0.00770683 0.587205 0.197843
15 1 0.310373 0.629219 0.490967
57 1 0.359254 0.696494 0.499457
43 1 0.00518467 0.711525 0.970563
24 1 0.39031 0.587992 0.983385
9 1 0.076366 0.864481 0.587468
23 1 0.244237 0.899781 0.816706
37 1 0.0302762 0.956753 0.801013
19 1 0.333789 0.590831 0.809254
41 1 0.353689 0.706341 0.848637
51 1 0.397553 0.831169 0.985214
2 1 0.967394 0.0595805 0.50467
45 1 0.930553 0.0168332 0.207142
7 1 0.898069 0.412263 0.0046501
17 1 0.91587 0.248884 0.688079
14 1 0.701278 0.0579838 0.694273
10 1 0.704113 -0.00421989 0.616969
26 1 0.912029 0.0399485 0.841751
3 1 0.737743 0.109548 0.943343
44 1 0.957139 0.77686 0.0540872
22 1 0.763828 0.839473 0.0370608
52 1 0.614754 0.991933 0.0171864
49 1 0.754873 0.530911 0.117033
25 1 0.897423 0.973328 0.142478
36 1 0.909106 0.917302 0.204819
42 1 0.785637 0.525167 0.481017
34 1 0.991706 0.543751 0.568786
20 1 0.646958 0.660996 0.52992
59 1 0.765547 0.689356 0.542355
46 1 0.942699 0.922062 0.714665
54 1 0.971693 0.852858 0.921979
5 1 0.757865 0.510895 0.717634
ITEM: TIMESTEP
700000
ITEM: NUMBER OF ATOMS
60
ITEM: BOX BOUNDS pp pp pp
-2.5000000000000000e+01 2.5000000000000000e+01
-2.0000000000000000e+01 2.0000000000000000e+01
-2.0000000000000000e+01 2.0000000000000000e+01
ITEM: ATOMS id type xs ys zs
13 1 0.189266 0.115217 0.0219449
1 1 0.0934905 0.193789 0.140304
51 1 0.0884504 0.429825 0.123465
25 1 0.0865484 0.150499 0.379647
50 1 0.314653 0.0375988 0.450604
19 1 0.0796801 0.141781 0.472426
40 1 0.159687 0.333419 0.472004
30 1 0.178657 0.0519593 0.658186
53 1 0.31399 0.292212 0.591907
4 1 0.0470381 0.389761 0.583967
31 1 0.155642 0.22671 0.764861
56 1 0.07928 0.390819 0.898366
48 1 0.328123 0.425396 0.912464
60 1 0.343791 0.026605 0.920508
41 1 0.047378 0.200677 0.893473
33 1 0.221812 0.295341 0.968848
32 1 0.300324 0.00223135 0.654628
21 1 0.181035 0.656732 0.111586
2 1 0.213273 0.856987 0.0423538
55 1 0.284857 0.535541 0.0811315
57 1 0.0996222 0.711091 0.196274
12 1 0.122358 0.923106 0.317899
18 1 0.0690354 0.765596 0.368729
15 1 0.237604 0.796979 0.47792
58 1 0.351923 0.574157 0.0135527
39 1 0.156577 0.615465 0.602209
38 1 0.194608 0.513409 0.749008
9 1 0.271052 0.636643 0.767473
34 1 0.0259639 0.691808 0.811685
16 1 0.225519 0.879029 0.784317
6 1 0.115498 0.99272 0.76552
23 1 0.0246873 0.739625 0.92093
29 1 0.274512 0.537492 0.917262
47 1 0.345531 0.796869 0.959958
24 1 0.378966 0.723833 0.894233
8 1 0.863388 0.211274 0.188666
42 1 0.962946 0.238604 0.0958384
10 1 0.699126 0.0328087 0.533076
44 1 0.864771 0.334462 0.92263
14 1 0.629261 0.37379 0.592499
28 1 0.826182 0.349579 0.654631
52 1 0.626004 0.418426 0.723893
17 1 0.93095 0.291398 0.807081
37 1 0.953942 0.41681 0.995597
22 1 0.7601 0.805728 0.00284602
45 1 0.784541 0.979639 0.0979933
11 1 0.803328 0.726855 0.0789162
43 1 0.832766 0.870749 0.119933
3 1 0.94359 0.61259 0.310217
5 1 0.950859 0.699677 0.252755
26 1 0.722206 0.759744 0.265495
54 1 0.875037 1.00137 0.431482
36 1 0.819291 0.586832 0.462158
59 1 0.754722 0.833373 0.716603
20 1 0.790236 0.614124 0.783637
49 1 0.676237 0.746051 0.749487
46 1 0.675962 0.945042 0.75063
27 1 0.882969 0.807008 0.85174
7 1 0.835378 0.51044 0.952491
35 1 0.907334 0.994732 0.599554
ITEM: TIMESTEP
800000
ITEM: NUMBER OF ATOMS
60
ITEM: BOX BOUNDS pp pp pp
-2.5000000000000000e+01 2.5000000000000000e+01
-2.0000000000000000e+01 2.0000000000000000e+01
-2.0000000000000000e+01 2.0000000000000000e+01
ITEM: ATOMS id type xs ys zs
57 1 0.336178 0.0282977 0.0460899
41 1 0.109027 0.469481 0.0134518
33 1 0.319906 0.241593 0.0927167
38 1 0.271586 0.0437205 0.21403
3 1 0.182611 0.226177 0.269134
40 1 0.0720843 0.390285 0.629239
6 1 0.171499 0.0727595 0.804138
48 1 0.29041 0.468129 0.827345
58 1 0.22377 0.427748 0.991093
21 1 0.293971 0.955759 0.0349114
12 1 0.0822461 0.809786 0.144747
18 1 0.0565165 0.676466 0.24583
45 1 0.0809287 0.954308 0.160314
50 1 0.144126 0.730697 0.218906
9 1 0.211499 0.655894 0.417123
32 1 0.161384 0.523989 0.463552
39 1 0.0772141 0.583008 0.444549
55 1 0.225113 0.821887 0.436332
15 1 0.210922 0.953085 0.42944
56 1 0.0153078 0.674157 0.145056
19 1 0.327194 0.533453 0.556462
4 1 0.0464898 0.689221 0.671426
30 1 0.189669 0.734429 0.677363
24 1 0.343343 0.740116 0.678208
60 1 0.219175 0.893865 0.735208
53 1 0.197615 0.552108 0.802751
23 1 0.00633597 0.82977 0.801391
2 1 0.148243 0.848315 0.760457
47 1 0.248347 0.543657 0.880609
29 1 0.328068 0.561874 0.880215
16 1 0.0723377 0.666635 0.900018
44 1 0.209681 0.525771 0.983013
20 1 0.127929 0.499341 0.8546
35 1 0.878305 0.00690448 0.057828
14 1 0.734625 0.0994288 0.168057
17 1 0.823775 0.215397 0.440056
8 1 0.923415 0.482826 0.464843
13 1 0.988721 0.383065 0.351111
1 1 0.897598 0.0121686 0.296752
25 1 0.980844 0.14917 0.511413
36 1 0.84242 0.320481 0.591227
52 1 0.811561 0.212201 0.606284
42 1 0.828167 0.452982 0.845923
37 1 0.754217 0.317602 0.982988
7 1 0.981398 0.270965 0.998921
43 1 0.646059 0.0369537 0.556161
28 1 0.937401 0.918788 0.0192253
27 1 0.627716 0.681901 0.0841203
10 1 0.707782 0.831501 0.420926
46 1 0.947994 0.979742 0.166039
26 1 0.714046 0.910732 0.322987
49 1 0.900424 0.699639 0.374642
31 1 0.948956 0.993659 0.545502
22 1 0.645071 0.829765 0.684833
11 1 0.691655 0.637484 0.772349
34 1 0.906775 0.598474 0.886314
59 1 0.884782 0.673585 0.917503
51 1 0.976182 0.96891 0.857982
5 1 0.80471 0.990782 0.929309
54 1 0.718717 0.848388 0.991099
ITEM: TIMESTEP
900000
ITEM: NUMBER OF ATOMS
60
ITEM: BOX BOUNDS pp pp pp
-2.5000000000000000e+01 2.5000000000000000e+01
-2.0000000000000000e+01 2.0000000000000000e+01
-2.0000000000000000e+01 2.0000000000000000e+01
ITEM: ATOMS id type xs ys zs
57 1 0.298576 0.08773 0.119883
45 1 0.0249897 0.178145 0.26175
3 1 0.194611 0.491329 0.458239
24 1 0.223826 0.317951 0.421439
55 1 0.309066 0.409959 0.512646
38 1 0.233601 0.100262 0.712623
40 1 0.0877502 0.352825 0.587585
29 1 0.358569 0.438217 0.739311
41 1 0.0537066 0.385191 0.786621
30 1 0.247393 0.437311 0.806917
47 1 0.332797 0.074136 0.952499
51 1 0.148009 0.102632 0.931222
48 1 0.347568 0.294522 0.964572
58 1 0.376909 0.599231 0.152782
18 1 0.00765863 0.717409 0.138096
56 1 0.089959 0.742145 0.224558
15 1 0.261991 0.73006 0.287202
9 1 0.10883 0.769096 0.376375
60 1 0.268068 0.723408 0.449821
4 1 0.024929 0.600625 0.56147
35 1 0.11319 0.964743 0.610745
21 1 0.10433 0.950819 0.778385
19 1 0.294158 0.572528 0.778498
36 1 0.0383074 0.741847 0.787067
46 1 0.115779 0.687744 0.829876
53 1 0.153322 0.873557 0.851691
33 1 0.166587 0.982901 0.856996
49 1 0.03881 0.589795 0.977523
2 1 0.890809 0.0888668 0.0466539
37 1 0.677257 0.165561 0.0741287
34 1 0.627476 0.280014 0.114927
1 1 0.965973 0.0796311 0.278072
8 1 0.99853 0.276524 0.281447
12 1 0.921057 0.00989414 0.373732
17 1 0.934115 0.196803 0.303797
39 1 0.901611 0.427219 0.338305
54 1 0.956686 0.294262 0.0369033
25 1 0.967887 0.222969 0.485963
52 1 0.878624 0.0425309 0.543339
13 1 0.757604 0.320758 0.525509
7 1 0.776355 0.462925 0.527266
6 1 0.999939 0.130318 0.737056
27 1 0.823276 0.483204 0.870546
31 1 0.843246 0.483423 0.785361
44 1 0.950813 0.527283 0.0553889
50 1 0.87443 0.855743 0.0731447
42 1 0.92678 0.811257 0.112139
59 1 0.762612 0.595893 0.286525
23 1 0.94315 0.716928 0.23196
43 1 0.671439 0.898475 0.361294
20 1 0.832502 0.520739 0.561676
10 1 0.891801 0.942359 0.512675
16 1 0.831983 0.591524 0.664287
11 1 0.781473 0.67279 0.645781
14 1 0.662219 0.829324 0.70383
5 1 0.828943 0.978638 0.705515
22 1 0.667259 0.620963 0.823007
32 1 0.963493 0.589577 0.80645
26 1 0.691981 0.899844 0.836855
28 1 0.90917 0.60124 0.901659
ITEM: TIMESTEP
1000000
ITEM: NUMBER OF ATOMS
60
ITEM: BOX BOUNDS pp pp pp
-2.5000000000000000e+01 2.5000000000000000e+01
-2.0000000000000000e+01 2.0000000000000000e+01
-2.0000000000000000e+01 2.0000000000000000e+01
ITEM: ATOMS id type xs ys zs
47 1 0.262109 0.340839 0.0223452
52 1 0.0487745 0.18172 0.386148
17 1 0.232777 0.0291043 0.133251
48 1 0.336865 0.0428208 0.167327
35 1 0.121422 0.155796 0.141244
30 1 0.0355281 0.262066 0.105586
45 1 0.353494 0.403125 0.155322
12 1 0.122431 0.0123567 0.26409
15 1 0.241937 0.18101 0.174418
55 1 0.0958051 0.406845 0.249483
29 1 0.226188 0.091565 0.503248
56 1 0.0920576 0.319928 0.874086
21 1 0.19592 0.122382 0.876612
33 1 0.0195259 0.180781 0.813419
40 1 0.0127002 0.352028 0.551269
19 1 0.184635 0.682626 0.0244175
9 1 0.382442 0.956354 0.147116
60 1 0.306508 0.676188 0.18537
4 1 0.030011 0.924788 0.237987
10 1 0.0402133 0.564502 0.392224
42 1 0.22094 0.604971 0.342138
8 1 0.13932 0.956935 0.36921
58 1 0.16949 0.870497 0.386294
38 1 0.380536 0.957464 0.400403
50 1 0.0268503 0.994311 0.12792
46 1 0.131192 0.611163 0.689075
24 1 0.0444537 0.879145 0.746633
44 1 0.243639 0.799577 0.873849
31 1 0.0100009 0.691698 0.810401
18 1 0.717389 0.309285 0.0315906
7 1 0.816896 0.316942 0.0392712
28 1 0.842701 0.0498166 0.0905687
41 1 0.733556 0.0616491 0.145729
23 1 0.932217 0.355469 0.126239
1 1 0.783805 0.460184 0.170241
39 1 0.913559 0.215313 0.256596
5 1 0.858862 0.114931 0.374624
6 1 0.877146 0.206726 0.348073
3 1 0.918454 0.148215 0.44249
59 1 0.637203 0.0129683 0.0719564
51 1 0.952371 0.272566 0.848552
27 1 0.706686 0.239166 0.549108
16 1 0.879002 0.403962 0.534214
20 1 0.660351 0.329632 0.822013
25 1 0.762301 0.375207 0.737131
54 1 0.996783 0.111752 0.909718
2 1 0.993111 0.0676881 0.584643
37 1 0.936064 0.804515 0.036175
43 1 0.834813 0.872308 0.278934
13 1 0.703496 0.538474 0.27461
34 1 0.771037 0.651085 0.495841
53 1 0.991197 0.878192 0.916089
36 1 0.820335 0.902535 0.652361
49 1 0.775703 0.566303 0.709163
22 1 0.713988 0.638813 0.725809
26 1 0.655074 0.719027 0.820796
11 1 0.635573 0.775173 0.941479
57 1 0.876297 0.944377 0.822798
14 1 0.714822 0.582231 0.88205
32 1 0.784782 0.630097 0.911642
ITEM: TIMESTEP
1100000
ITEM: NUMBER OF ATOMS
60
ITEM: BOX BOUNDS pp pp pp
-2.5000000000000000e+01 2.5000000000000000e+01
-2.0000000000000000e+01 2.0000000000000000e+01
-2.0000000000000000e+01 2.0000000000000000e+01
ITEM: ATOMS id type xs ys zs
17 1 0.301297 0.0498914 0.0772178
60 1 0.334684 0.288198 0.350044
46 1 0.3397 0.410334 0.156898
30 1 0.323648 0.0847088 0.193751
42 1 0.225497 0.117179 0.288461
51 1 0.0103487 0.287103 0.313273
29 1 0.330141 0.362916 0.458476
12 1 0.15478 0.054841 0.34947
33 1 0.0102688 0.0797067 0.397777
3 1 0.111825 0.257266 0.642476
44 1 0.159145 0.199445 0.753734
56 1 0.326922 0.264618 0.672301
54 1 0.0676491 0.0454082 0.726066
10 1 0.343583 0.189467 0.76442
45 1 0.310331 0.278991 0.797394
48 1 0.259308 0.330406 0.893101
53 1 0.155401 0.458516 0.823084
9 1 0.343294 0.431106 0.997522
43 1 0.177597 0.0864079 0.516272
24 1 0.00126091 0.286526 0.747641
38 1 0.322217 0.0657153 0.498592
19 1 0.224517 0.682118 0.0172081
13 1 0.0527289 0.813387 0.0343994
55 1 0.260185 0.586981 0.123172
22 1 0.0934198 0.624211 0.460247
4 1 0.119755 0.828222 0.519835
50 1 0.10346 0.920274 0.50177
21 1 0.175481 0.996591 0.990957
8 1 0.0379761 0.927714 0.74917
58 1 0.182997 0.787152 0.873425
11 1 0.880903 0.131319 0.0484757
1 1 0.629017 0.0691282 0.231545
37 1 0.705522 0.174035 0.237255
39 1 0.676619 0.376219 0.268994
47 1 1.00034 0.12284 0.132768
36 1 0.805615 0.0302809 0.568728
40 1 0.911549 0.101118 0.644393
26 1 0.655947 0.0842023 0.609278
25 1 0.951264 0.224932 0.908842
59 1 0.749221 0.0860285 0.724415
20 1 0.706717 0.406802 0.70371
57 1 0.715453 0.0366324 0.598914
23 1 0.794595 0.0196137 0.907572
52 1 0.650818 0.295111 0.497671
15 1 0.973881 0.652634 0.07118
27 1 0.740577 0.923813 0.440852
18 1 0.664355 0.611237 0.155004
34 1 0.789663 0.61788 0.224672
35 1 0.853019 0.716196 0.228152
5 1 0.991837 0.796904 0.286626
6 1 0.614857 0.740681 0.65406
49 1 0.766586 0.809211 0.60501
14 1 0.864335 0.576425 0.982358
32 1 0.609319 0.655214 0.649291
31 1 0.766527 0.629337 0.943092
16 1 0.968825 0.886791 0.994462
41 1 0.982628 0.804062 0.916196
7 1 0.989506 0.648044 0.740334
2 1 0.823571 0.965153 0.708048
28 1 0.740486 0.764605 0.498783
ITEM: TIMESTEP
1200000
ITEM: NUMBER OF ATOMS
60
ITEM: BOX BOUNDS pp pp pp
-2.5000000000000000e+01 2.5000000000000000e+01
-2.0000000000000000e+01 2.0000000000000000e+01
-2.0000000000000000e+01 2.0000000000000000e+01
ITEM: ATOMS id type xs ys zs
45 1 0.262027 0.296712 0.0188036
30 1 0.362592 0.136056 0.266305
60 1 0.163215 0.00259735 0.368633
25 1 0.26769 0.480027 0.030501
46 1 0.184106 0.483006 -0.00969903
22 1 0.307019 0.13993 0.547158
56 1 0.0696821 0.38499 0.56908
48 1 0.345806 0.375164 0.577097
29 1 0.307839 0.479483 0.586107
54 1 0.206572 0.210942 0.652875
24 1 0.181104 0.410141 0.707326
9 1 0.12736 0.120657 0.865171
10 1 0.147069 0.222011 0.859247
41 1 0.0149651 0.251642 0.859672
43 1 0.168459 0.0203457 0.727066
33 1 0.04046 0.974623 0.396603
19 1 0.211569 0.905198 0.0380573
17 1 0.304137 0.727881 0.0968245
5 1 0.171982 0.834564 0.149441
42 1 0.320035 0.552325 0.205416
38 1 0.329317 0.904418 0.215618
7 1 0.125081 0.754587 0.283761
4 1 0.103036 0.660316 0.485528
12 1 0.0468579 0.86464 0.956961
21 1 0.171889 0.880886 0.599131
44 1 0.202091 0.846952 0.738704
55 1 0.269939 0.964433 0.833167
58 1 0.218044 0.628173 0.837148
3 1 0.758433 0.371882 0.315923
11 1 0.856299 0.491522 0.0298939
37 1 0.849402 0.29038 0.0610394
52 1 0.989751 0.177322 0.258983
14 1 0.892465 0.475207 0.18375
27 1 0.908809 0.0170281 0.267204
57 1 0.690266 0.152089 0.606785
39 1 0.917272 0.288843 0.551439
20 1 1.00259 0.311695 0.647366
13 1 0.944815 0.12076 0.772789
36 1 0.745863 0.170443 0.840715
51 1 0.836845 0.237653 0.862378
40 1 0.944515 0.156277 0.943588
59 1 0.936315 0.148763 0.513492
53 1 0.896435 0.645691 0.184823
15 1 0.916356 0.765801 0.164337
2 1 0.807634 0.929455 0.271661
16 1 0.763653 0.942324 0.159421
35 1 0.657642 0.794982 0.292104
34 1 0.635715 0.614963 0.388124
18 1 0.876951 0.807978 0.384798
47 1 0.657757 0.9772 0.36558
23 1 0.677472 0.977673 0.0850158
31 1 0.656417 0.740592 0.472392
50 1 0.867169 0.522061 0.496716
6 1 0.704318 0.874273 0.494315
32 1 0.644308 0.580503 0.524
28 1 0.950625 0.884926 0.569344
26 1 0.686469 0.675867 0.639087
49 1 0.672121 0.637501 0.843966
1 1 0.642267 0.880479 0.783332
8 1 0.873871 0.699165 0.915601
ITEM: TIMESTEP
1300000
ITEM: NUMBER OF ATOMS
60
ITEM: BOX BOUNDS pp pp pp
-2.5000000000000000e+01 2.5000000000000000e+01
-2.0000000000000000e+01 2.0000000000000000e+01
-2.0000000000000000e+01 2.0000000000000000e+01
ITEM: ATOMS id type xs ys zs
29 1 0.203034 0.300287 0.0551843
58 1 0.35694 0.142036 0.147223
47 1 0.0558983 0.453414 0.276928
24 1 0.291445 0.0208928 0.386171
48 1 0.213989 0.263751 0.41716
20 1 0.194496 0.488652 0.262771
44 1 0.190399 0.430094 0.513497
43 1 0.129996 0.0859846 0.619723
21 1 0.146839 0.418358 0.642714
30 1 0.395147 0.412341 0.593602
18 1 0.0471709 0.500929 0.903952
19 1 0.236576 0.22612 0.783292
25 1 0.255107 0.438554 0.738859
17 1 0.254157 0.318868 0.835839
45 1 0.226867 0.364773 0.905967
59 1 0.00108681 0.368909 0.735739
5 1 0.225875 0.598556 0.0262049
7 1 0.0107837 0.788066 0.302674
4 1 0.299604 0.917371 0.266228
38 1 0.414031 0.957339 0.301167
22 1 0.326745 0.721308 0.331313
42 1 0.059847 0.830823 0.383047
60 1 0.37895 0.770918 0.46191
46 1 0.193751 0.58702 0.531768
49 1 0.0898601 0.595017 0.672036
54 1 0.00842904 0.93154 0.669594
12 1 0.126113 0.747644 0.765955
28 1 0.0700403 0.951644 0.803576
55 1 0.20375 0.910864 0.967689
41 1 0.245029 0.59824 0.857255
40 1 0.883751 0.176315 0.0555561
10 1 0.742609 0.212144 0.0760642
39 1 0.77047 0.430166 0.0139709
36 1 0.702432 0.211758 0.178351
34 1 0.705629 0.0946601 0.264026
9 1 0.811931 0.0168989 0.271431
3 1 0.937847 0.276024 0.287699
51 1 0.76515 0.359419 0.485536
37 1 0.831545 0.214027 0.522608
1 1 0.726798 0.050543 0.626255
23 1 0.784477 0.326977 0.971401
13 1 0.697786 0.232139 0.776789
14 1 0.847997 0.316802 0.730474
56 1 0.980542 0.480509 0.749541
2 1 0.991845 0.199424 0.685415
33 1 0.717747 0.168211 0.501358
32 1 0.690669 0.581794 0.193756
16 1 0.749826 0.916829 0.120322
53 1 0.883007 0.871566 0.168636
35 1 0.855298 0.656565 0.30229
27 1 0.912758 0.743732 0.473013
52 1 0.841402 0.896246 0.408179