ITEM: TIMESTEP
0
ITEM: NUMBER OF ATOMS
7982
ITEM: BOX BOUNDS pp pp pp
-2.1195284069596735e+01 2.1195284069596735e+01
-2.1195284069596735e+01 2.1195284069596735e+01
-2.1195284069596735e+01 2.1195284069596735e+01
ITEM: ATOMS id type xs ys zs
54 1 0.0859584 0.0305252 0.0266605
56 2 0.0684317 0.0446192 0.0246465
95 2 0.0998089 0.184655 0.0158171
96 1 0.0317338 0.0736033 0.0244503
97 2 0.0420964 0.0821392 0.00629448
98 2 0.0406935 0.084821 0.0418792
684 1 0.109095 0.112432 0.0512018
685 2 0.106135 0.123862 0.031954
686 2 0.0885394 0.111603 0.0605119
1232 2 0.163715 0.0427689 0.0335523
182 2 0.115848 0.14921 0.0801089
728 2 0.117432 0.164602 0.131429
1233 1 0.167897 0.0117251 0.0981952
1235 2 0.154492 0.0285942 0.0914421
1275 1 0.151279 0.0678889 0.0633673
1276 2 0.133688 0.0803675 0.0566795
180 1 0.126963 0.166788 0.0889028
727 2 0.132672 0.137749 0.149376
141 1 0.0538952 0.104843 0.0759818
142 2 0.0563301 0.100554 0.098017
143 2 0.0408618 0.123266 0.075207
1230 1 0.173748 0.0317869 0.0165635
1234 2 0.186531 0.0219867 0.105768
1272 1 0.194319 0.137215 0.10101
1274 2 0.193437 0.156039 0.0885706
1318 2 0.18013 0.121897 0.139569
1277 2 0.163823 0.0819786 0.0757773
1317 1 0.169737 0.117121 0.159038
138 1 0.0356068 0.167642 0.113247
139 2 0.0144014 0.166427 0.120911
140 2 0.0477085 0.174306 0.131108
135 1 0.0196871 0.180423 0.0499684
137 2 0.031269 0.180732 0.0693498
181 2 0.145751 0.168395 0.0764808
723 1 0.179078 0.180744 0.054657
724 2 0.187343 0.175118 0.0344105
725 2 0.167131 0.199528 0.0508743
645 1 0.0958322 0.00926929 0.142987
136 2 0.00179644 0.193641 0.0538532
59 2 0.0759784 0.0130517 0.0758342
646 2 0.115491 0.0178658 0.135951
89 2 0.00738352 0.0400279 0.017153
726 1 0.115043 0.15185 0.14991
99 1 0.0782996 0.0991301 0.147246
100 2 0.0852 0.0875952 0.16539
101 2 0.0952344 0.113399 0.142831
687 1 0.0875549 0.0561126 0.193106
688 2 0.109923 0.055964 0.190022
145 2 0.0380717 0.113906 0.157228
1278 1 0.150525 0.0634565 0.185149
1280 2 0.157372 0.0842731 0.179703
774 1 0.0882897 0.183028 0.196658
775 2 0.0658889 0.183517 0.193857
776 2 0.0958723 0.170505 0.179466
1195 2 0.0264147 0.0371547 0.170228
1194 1 0.00766446 0.0456488 0.160946
1319 2 0.183683 0.124961 0.174972
144 1 0.0209017 0.119056 0.170959
146 2 0.030437 0.121479 0.191284
1196 2 0.00510463 0.0658076 0.170792
187 2 0.00825528 0.170155 0.199716
58 2 0.0633476 0.0111396 0.109184
57 1 0.0570517 0.0154032 0.0879226
7946 2 0.00817655 0.0320529 0.0809299
647 2 0.0914317 0.0202179 0.162239
55 2 0.096689 0.0319675 0.00684507
93 1 0.108555 0.166137 0.00630645
683 2 0.150599 0.0999669 0.00715505
1273 2 0.21467 0.128473 0.0966152
1857 1 0.282869 0.0707257 0.0466259
1860 1 0.240834 0.0950431 0.0966625
1861 2 0.255367 0.0893792 0.0803348
1862 2 0.253908 0.100253 0.114321
2406 1 0.298565 0.0981902 0.133945
2407 2 0.3113 0.110367 0.119823
2408 2 0.306632 0.0771763 0.132152
1902 1 0.317396 0.180268 0.0561395
1903 2 0.33178 0.17114 0.070961
1904 2 0.296973 0.176448 0.0649819
1821 1 0.22559 0.031524 0.113411
1822 2 0.231647 0.0529153 0.109461
1823 2 0.231499 0.0278414 0.134892
2987 2 0.310969 0.0175799 0.155571
1859 2 0.301532 0.0585266 0.0430541
2939 2 0.380123 0.00396028 0.0697856
2982 1 0.320058 0.0423855 0.115774
2983 2 0.309327 0.0270537 0.103138
3067 2 0.362236 0.139482 0.116132
2984 2 0.338303 0.0479225 0.103677
3564 1 0.370977 0.0990534 0.1672
3566 2 0.355603 0.114198 0.160553
3477 1 0.372833 0.045217 0.0783055
3479 2 0.383475 0.0557383 0.0952152
3478 2 0.383114 0.0526745 0.0596356
3066 1 0.346335 0.128895 0.104093
3068 2 0.355765 0.125706 0.0838249
3606 1 0.370907 0.125712 0.0454586
3607 2 0.392595 0.129785 0.040674
1855 2 0.224069 0.0290079 0.00926214
1817 2 0.346196 0.0471359 0.0381449
1858 2 0.266288 0.0585745 0.0372821
1312 2 0.266204 0.180419 0.0169258
1314 1 0.26014 0.168787 0.0788018
1315 2 0.249314 0.188086 0.0743029
1316 2 0.2622 0.16856 0.101287
1905 1 0.255855 0.181595 0.144446
2534 2 0.323247 0.198819 0.146375
2411 2 0.272113 0.0162876 0.176184
3608 2 0.361272 0.122033 0.0253709
3064 2 0.395766 0.166777 0.00108619
3611 2 0.375396 0.178551 0.14182
3485 2 0.39002 0.0302325 0.152266
1819 2 0.318224 0.0071508 0.0535987
1864 2 0.276312 0.118041 0.167334
2985 1 0.309057 0.00178414 0.171593
1863 1 0.270773 0.132622 0.183662
1865 2 0.289214 0.133869 0.196634
1906 2 0.259215 0.16552 0.159943
2410 2 0.24838 0.0410194 0.186209
2986 2 0.322809 0.00875839 0.188089
3565 2 0.383175 0.109856 0.182833
2990 2 0.357106 0.0634454 0.196609
3527 2 0.394524 0.0790479 0.142766
1907 2 0.234241 0.187575 0.147086
3609 1 0.390175 0.161485 0.141372
1815 1 0.33325 0.0339835 0.0251334
1816 2 0.346083 0.0294585 0.00711383
2409 1 0.250083 0.0211991 0.175525
1854 1 0.244121 0.0369494 0.00257384
3483 1 0.38715 0.0104107 0.162694
3484 2 0.384605 0.0157892 0.184476
1940 2 0.282467 0.102411 0.0119001
3519 1 0.520147 0.018387 0.0408657
2979 1 0.406998 0.0567055 0.0232638
2981 2 0.428178 0.0494482 0.0261973
3522 1 0.429728 0.142737 0.0150647
3523 2 0.448889 0.146301 0.0264682
4032 1 0.448291 0.0968588 0.0907639
4033 2 0.4634 0.0986169 0.107452
4034 2 0.450948 0.115765 0.0787072
3562 2 0.524912 0.102631 0.0272341
3561 1 0.541831 0.0927383 0.038449
3568 2 0.501683 0.0850483 0.146895
4079 2 0.497357 0.148241 0.135186
3567 1 0.483758 0.0980698 0.142535
3521 2 0.535709 0.0346645 0.0425193
3520 2 0.501824 0.0270393 0.0508295
4035 1 0.546289 0.0660317 0.143627
4036 2 0.552482 0.0789642 0.126183
4037 2 0.547178 0.0449337 0.135629
4077 1 0.504971 0.159591 0.117211
4078 2 0.519035 0.175027 0.125804
3563 2 0.540044 0.10065 0.0595224
4074 1 0.552836 0.115417 0.100336
4076 2 0.569923 0.128566 0.0936288
3996 1 0.462459 0.0222422 0.193487
4075 2 0.536777 0.12989 0.106857
4541 2 0.572191 0.0886229 0.00602923
4038 1 0.5522 0.0138872 0.10719
5067 1 0.59526 0.0569763 0.075174
5068 2 0.599857 0.0787974 0.071626
4113 1 0.53841 0.178697 0.0129676
4115 2 0.55085 0.187319 0.0297241
4116 1 0.468431 0.155186 0.0662938
4117 2 0.482924 0.15774 0.0834203
4118 2 0.450866 0.168289 0.0717397
3111 1 0.410494 0.186241 0.0854583
3113 2 0.402903 0.172302 0.101519
3610 2 0.403701 0.165243 0.159058
4114 2 0.518727 0.189683 0.0142988
4031 2 0.538275 0.00298365 0.000209035
3988 2 0.45471 0.0243228 0.082016
3525 1 0.404558 0.0650723 0.128141
3526 2 0.42021 0.0777901 0.117985
3569 2 0.475759 0.103691 0.16289
3612 1 0.524046 0.150331 0.185394
3614 2 0.506238 0.137286 0.190142
5076 1 0.596628 0.0419493 0.187044
5077 2 0.588708 0.0550775 0.170467
3613 2 0.541733 0.139004 0.193685
4124 2 0.548569 0.081657 0.191958
3069 1 0.429904 0.18538 0.19812
3995 2 0.480163 8.74874e-05 0.130085
3993 1 0.495676 0.0120741 0.14129
3998 2 0.475531 0.0201707 0.175192
3989 2 0.461898 0.0571704 0.0699835
2980 2 0.406503 0.0642803 0.00199743
3987 1 0.466184 0.0353605 0.066004
4040 2 0.56314 0.0247756 0.0907084
3994 2 0.514371 0.0102582 0.128757
3020 2 0.458962 0.00195528 0.0381642
6226 2 0.727405 0.0110443 0.110629
5070 1 0.608343 0.149384 0.0851793
5071 2 0.623942 0.134271 0.0790027
5631 1 0.636865 0.109037 0.0305444
5073 1 0.6363 0.0968935 0.108428
5074 2 0.62291 0.102169 0.125829
5075 2 0.655763 0.107449 0.112859
5637 1 0.663892 0.0399929 0.0977921
4540 2 0.604539 0.103752 0.00645582
5072 2 0.614295 0.168358 0.0744816
4626 1 0.631466 0.172367 0.144684
4627 2 0.652618 0.165201 0.141348
4628 2 0.620333 0.165994 0.126101
4545 1 0.6111 0.114507 0.165738
4546 2 0.60594 0.136399 0.16774
5639 2 0.652763 0.0576432 0.106423
5632 2 0.64761 0.126964 0.0219958
5634 1 0.679302 0.063036 0.0269575
5638 2 0.684759 0.0417812 0.106231
5633 2 0.651536 0.0920241 0.02826
5635 2 0.698666 0.0658261 0.0382324
5636 2 0.678336 0.0408694 0.0227639
5674 2 0.764509 0.08527 0.0511015
6807 1 0.739283 0.0501127 0.0473909
6808 2 0.742981 0.0409195 0.067681
6809 2 0.738029 0.0324867 0.033333
6810 1 0.792595 0.0979531 0.120793
6812 2 0.781452 0.100478 0.101316
5679 1 0.683968 0.133735 0.122821
5680 2 0.690392 0.137592 0.10152
5681 2 0.702988 0.1279 0.133502
6227 2 0.751512 0.0368042 0.116168
6815 2 0.744091 0.134704 0.160975
5673 1 0.771982 0.10511 0.058875
5675 2 0.78917 0.110426 0.0452298
5676 1 0.721492 0.153693 0.0609244
5677 2 0.738004 0.13873 0.0645753
6813 1 0.729037 0.118053 0.158523
6814 2 0.740949 0.0991365 0.16171
4582 2 0.64525 0.180209 0.0142114
5114 2 0.658134 0.199379 0.0561483
5678 2 0.724248 0.160033 0.0394284
5719 2 0.707445 0.183713 0.0827666
6306 1 0.778989 0.185258 0.0927742
6307 2 0.794789 0.174592 0.0806708
6308 2 0.759493 0.176197 0.0858712
6855 1 0.777511 0.165797 0.155683
6856 2 0.783167 0.175019 0.135862
6857 2 0.769076 0.182949 0.167705
5069 2 0.615475 0.0469234 0.0755684
5107 2 0.612801 0.0431039 0.01604
6225 1 0.730748 0.0332263 0.108049
4547 2 0.629396 0.111796 0.178691
5115 1 0.676361 0.122585 0.197766
5116 2 0.692083 0.122956 0.181562
5640 1 0.792108 0.0129426 0.140807
6816 1 0.773351 0.0708897 0.175172
6817 2 0.773617 0.0502764 0.165958
6818 2 0.783268 0.0841007 0.159777
5160 1 0.693506 0.189905 0.195937
6183 1 0.654774 0.0133607 0.165838
6185 2 0.653804 0.0207355 0.144518
6184 2 0.637237 0.0232571 0.176055
6181 2 0.667695 0.014996 0.0574406
5106 1 0.61072 0.0227878 0.00640634
5641 2 0.807896 0.0116767 0.124713
7908 1 0.953694 0.00367169 0.155443
6223 2 0.844155 0.0197759 0.0645183
6222 1 0.82777 0.0341369 0.0704481
6224 2 0.838566 0.0533886 0.0752127
6811 2 0.813778 0.0931583 0.114615
6849 1 0.830751 0.0501687 0.00552367
6265 2 0.804662 0.140963 0.0113014
6859 2 0.822722 0.159586 0.173444
6264 1 0.816386 0.123694 0.0199146
6266 2 0.828288 0.132797 0.0368072
6890 2 0.955368 0.0472446 0.0136994
6888 1 0.93786 0.0524772 0.0269647
7398 1 0.854309 0.0899041 0.0816114
6850 2 0.826144 0.0482716 0.0275476
7399 2 0.867673 0.0823885 0.0981889
7400 2 0.868283 0.0934052 0.064223
7438 2 0.966144 0.150028 0.0203852
7440 1 0.900344 0.102108 0.0382542
7442 2 0.908917 0.117553 0.0241894
7401 1 0.911078 0.13006 0.0963596
7402 2 0.933095 0.125662 0.0939567
7404 1 0.971435 0.0973312 0.0875659
7406 2 0.976823 0.103693 0.0665807
7437 1 0.983565 0.135668 0.0208335
7439 2 0.998587 0.145419 0.0345853
7441 2 0.912308 0.0834119 0.0341041
7403 2 0.901299 0.119768 0.0787998
7405 2 0.970495 0.0747917 0.0865833
7409 2 0.90944 0.121022 0.146228
7945 2 0.997333 0.0270159 0.114582
7951 2 0.928583 0.000683507 0.110776
7909 2 0.943778 0.00863873 0.175112
6894 1 0.839012 0.17076 0.0636257
6896 2 0.84292 0.187208 0.0486572
6860 2 0.837847 0.18777 0.18933
6891 1 0.903792 0.199903 0.053155
6895 2 0.85196 0.176045 0.081354
7443 1 0.877141 0.1804 0.117913
7444 2 0.892875 0.192011 0.129205
7445 2 0.88756 0.161376 0.111636
7446 1 0.935931 0.195377 0.14624
7447 2 0.949088 0.17785 0.1408
6932 2 0.89585 0.169081 0.0178575
87 1 0.995693 0.0251636 0.0048134
6820 2 0.827689 0.0277328 0.181718
6858 1 0.8383 0.1652 0.188797
104 2 0.987633 0.134442 0.152615
6228 1 0.895831 0.0587066 0.124477
6229 2 0.891764 0.039309 0.135297
6230 2 0.907177 0.0525788 0.105941
6863 2 0.876547 0.0950068 0.185463
7407 1 0.900551 0.128221 0.165697
7408 2 0.888503 0.146456 0.160021
103 2 0.9721 0.125042 0.121861
102 1 0.973261 0.141877 0.136865
6854 2 0.900564 0.00490613 0.0588806
7950 1 0.93183 0.00215786 0.0884787
6889 2 0.920714 0.0402714 0.0187858
6852 1 0.881764 0.00461258 0.0463763
7910 2 0.965748 0.0220796 0.150372
7944 1 0.989594 0.0296947 0.093539
7952 2 0.952424 0.0111705 0.086341
6930 1 0.904987 0.157269 0.00092053
6851 2 0.853288 0.0511471 0.00451822
301 2 0.0158709 0.300327 0.0114783
302 2 0.0114107 0.335423 0.00659763
177 1 0.0800221 0.233718 0.0873992
178 2 0.0988168 0.240318 0.0980331
179 2 0.0656049 0.228631 0.104017
219 1 0.0305527 0.280461 0.0805281
220 2 0.0463241 0.264539 0.0832905
765 1 0.154944 0.239787 0.025124
766 2 0.152821 0.262054 0.0282159
767 2 0.135176 0.23339 0.0162814
768 1 0.140498 0.261035 0.112943
769 2 0.162489 0.259223 0.108147
770 2 0.137627 0.248186 0.131288
810 1 0.128982 0.324354 0.121588
221 2 0.0421125 0.299852 0.0800159
812 2 0.129518 0.302291 0.116807
807 1 0.0844533 0.219722 0.0262137
772 2 0.0707518 0.283229 0.190477
269 2 0.0681953 0.340771 0.160791
809 2 0.0872471 0.222143 0.0484896
811 2 0.144978 0.333382 0.108454
1398 1 0.179855 0.344403 0.0800744
1395 1 0.0890111 0.344919 0.0275975
852 1 0.0637026 0.331055 0.0894296
853 2 0.0831785 0.324435 0.0987437
854 2 0.0689787 0.335695 0.0679701
183 1 0.0428266 0.230798 0.14398
184 2 0.0212643 0.237424 0.142959
260 2 0.0310647 0.271375 0.0383768
300 1 0.00145088 0.317227 0.0155194
1358 2 0.193154 0.235925 0.125363
1399 2 0.184403 0.324963 0.0695255
1942 2 0.196787 0.27909 0.0540168
850 2 0.0548059 0.364536 0.0050281
1941 1 0.188023 0.295907 0.0417586
851 2 0.0265268 0.386347 0.00508648
185 2 0.0515363 0.242505 0.161213
1397 2 0.103752 0.361409 0.0321429
1437 1 0.138366 0.391219 0.0246755
897 1 0.0528057 0.373106 0.139497
898 2 0.0406132 0.389596 0.130047
899 2 0.0576766 0.359166 0.122414
1487 2 0.150183 0.392545 0.141967
1439 2 0.159589 0.384322 0.0212258
1485 1 0.171991 0.386865 0.140545
1486 2 0.176705 0.38798 0.11849
314 2 0.0435299 0.391903 0.178567
1400 2 0.195548 0.345877 0.0962427
2025 1 0.199261 0.374883 0.0207205
2027 2 0.192615 0.366482 0.0405987
1444 2 0.184356 0.33529 0.188046
1445 2 0.156103 0.327493 0.167641
258 1 0.0321856 0.258008 0.0202127
730 2 0.117189 0.215162 0.180786
259 2 0.0113287 0.249629 0.0180541
267 1 0.0786071 0.323155 0.170339
268 2 0.095281 0.31799 0.156015
226 2 0.0139797 0.283071 0.198217
729 1 0.133118 0.228266 0.171596
731 2 0.139771 0.241749 0.188443
771 1 0.0557468 0.267045 0.195252
1359 1 0.198799 0.208007 0.163058
1361 2 0.177162 0.202219 0.165922
1529 2 0.0929557 0.398557 0.134349
1406 2 0.122884 0.399027 0.197449
1443 1 0.163292 0.327217 0.189045
2036 2 0.18987 0.39252 0.180888
808 2 0.0671104 0.233277 0.0211771
1396 2 0.0975339 0.334554 0.00943721
2615 2 0.293039 0.394465 0.014141
2530 2 0.337776 0.311343 0.0214074
1943 2 0.204683 0.302007 0.0277896
3107 2 0.352287 0.260931 0.0112692
2448 1 0.339119 0.217044 0.0127271
2450 2 0.327254 0.202367 0.025125
1353 1 0.236051 0.229046 0.0549803
1354 2 0.248754 0.246365 0.0619493
1355 2 0.217164 0.230576 0.067261
1356 1 0.201038 0.248944 0.108682
1357 2 0.214448 0.263885 0.119018
1944 1 0.233469 0.284791 0.150046
1945 2 0.253031 0.284452 0.138772
1946 2 0.230556 0.306463 0.155678
1986 1 0.274853 0.285758 0.0553955
1987 2 0.290359 0.300104 0.0474176
2490 1 0.355218 0.228972 0.0868338
2491 2 0.34061 0.217252 0.0994485
2492 2 0.347621 0.226603 0.0657019
2574 1 0.289569 0.287568 0.11951
2575 2 0.300037 0.271377 0.131265
1988 2 0.278246 0.285594 0.077719
2576 2 0.302919 0.305652 0.121656
2578 2 0.35073 0.259978 0.118401
2533 2 0.290682 0.200664 0.131831
2535 1 0.355023 0.200518 0.18297
2577 1 0.349738 0.270586 0.138309
2579 2 0.370612 0.268782 0.146731
3151 2 0.399447 0.336973 0.140447
3152 2 0.389797 0.339066 0.106126
2529 1 0.322094 0.327586 0.0210794
3112 2 0.396068 0.20361 0.0857549
1440 1 0.223336 0.345132 0.170368
1441 2 0.222074 0.358853 0.152479
1442 2 0.24346 0.349649 0.179559
2026 2 0.213067 0.39192 0.0261053
2028 1 0.239596 0.344864 0.105554
2029 2 0.260584 0.336535 0.105745
2030 2 0.242391 0.367219 0.104042
2070 1 0.301718 0.391458 0.160771
2072 2 0.296839 0.375475 0.175956
2613 1 0.308787 0.389192 0.0294404
2614 2 0.31257 0.367153 0.0263053
2616 1 0.310875 0.346994 0.109833
2617 2 0.329218 0.34933 0.0968731
2618 2 0.312254 0.363932 0.124702
3192 1 0.367011 0.36018 0.0813728
3193 2 0.366462 0.357929 0.0589115
3194 2 0.376492 0.380384 0.0848079
1900 2 0.236887 0.241458 0.0134771
1403 2 0.333379 0.27389 0.181108
2532 1 0.312328 0.205712 0.127852
1360 2 0.203724 0.22062 0.181129
1401 1 0.322671 0.282723 0.198918
1949 2 0.231668 0.27006 0.190715
1448 2 0.294591 0.318203 0.198662
2537 2 0.368813 0.216721 0.190533
2621 2 0.382142 0.378936 0.182558
2619 1 0.390119 0.35866 0.176629
3105 1 0.366789 0.278177 0.00980484
3106 2 0.385856 0.268896 0.0020455
2449 2 0.354414 0.204344 0.00201901
4155 1 0.565626 0.221383 0.0538113
4156 2 0.583506 0.223638 0.0402059
3108 1 0.445739 0.27484 0.104968
3109 2 0.44139 0.262705 0.0864291
3110 2 0.426651 0.286257 0.108868
3647 2 0.435426 0.247339 0.012684
3648 1 0.443766 0.231473 0.0533843
3649 2 0.434182 0.213859 0.0637663
3650 2 0.464027 0.223891 0.0469121
4714 2 0.444775 0.336109 0.140115
3150 1 0.406617 0.332253 0.119562
1991 2 0.421674 0.253875 0.155804
4159 2 0.480503 0.264731 0.133571
4584 1 0.535283 0.221264 0.120009
4585 2 0.542647 0.217586 0.0989816
4586 2 0.55341 0.228895 0.131102
4200 1 0.504617 0.301459 0.0558066
4201 2 0.516348 0.295383 0.0741191
4668 1 0.597928 0.276391 0.09581
4157 2 0.549471 0.233759 0.0440271
4202 2 0.515086 0.319991 0.0482674
4671 1 0.537748 0.294072 0.106972
4672 2 0.558515 0.286438 0.102463
4673 2 0.537364 0.296517 0.129416
4625 2 0.506364 0.264321 0.0369964
4623 1 0.509303 0.243726 0.0282167
4158 1 0.493446 0.255765 0.149757
4160 2 0.509371 0.24431 0.138575
4713 1 0.4632 0.330468 0.151886
4715 2 0.466264 0.308542 0.147443
3687 1 0.535407 0.351041 0.0208163
3688 2 0.517667 0.364877 0.0227467
3690 1 0.449966 0.335518 0.0592073
3691 2 0.440741 0.332613 0.0796118
4197 1 0.485206 0.385102 0.0386953
3189 1 0.408274 0.366416 0.0218355
3190 2 0.423302 0.352376 0.0311577
3191 2 0.409422 0.385118 0.0344383
3224 2 0.413614 0.387857 0.13661
3692 2 0.468523 0.322657 0.0595001
4199 2 0.469505 0.369666 0.0437056
3729 1 0.497953 0.378111 0.125352
3730 2 0.487554 0.362876 0.138377
3731 2 0.510483 0.36581 0.111154
4708 2 0.545468 0.387152 0.0477203
4710 1 0.543379 0.354556 0.0888112
4711 2 0.545873 0.332889 0.0946586
4712 2 0.560929 0.365059 0.0983806
4754 2 0.581482 0.323878 0.0359487
4717 2 0.581056 0.334094 0.162145
4758 1 0.595995 0.394055 0.121627
1989 1 0.406152 0.267344 0.16516
1990 2 0.413397 0.27049 0.186314
4162 2 0.507387 0.271824 0.193302
4163 2 0.516295 0.305629 0.186001
4120 2 0.494752 0.220189 0.181659
4630 2 0.57585 0.20794 0.198756
4674 1 0.538762 0.335847 0.165585
4676 2 0.538655 0.343992 0.186645
2620 2 0.408385 0.355755 0.189582
4675 2 0.532741 0.353386 0.1527
4205 2 0.517069 0.396989 0.157245
4624 2 0.505751 0.246447 0.00608399
5239 2 0.698269 0.350274 0.0259986
5112 1 0.637247 0.201448 0.0478207
5113 2 0.637258 0.221492 0.0374218
4665 1 0.626434 0.260978 0.0274094
4666 2 0.617058 0.275456 0.0419818
5154 1 0.638315 0.28018 0.179262
5155 2 0.656738 0.283034 0.166521
5156 2 0.624269 0.296581 0.172659
4588 2 0.616467 0.238943 0.179104
4589 2 0.615768 0.209028 0.15961
4587 1 0.602346 0.224834 0.168549
5201 2 0.677992 0.302687 0.113599
5718 1 0.695267 0.202141 0.0874529
5720 2 0.709639 0.219314 0.0845516
5760 1 0.741521 0.24555 0.0775413
5761 2 0.73 0.2603 0.0649087
5762 2 0.754685 0.258389 0.0906456
5802 1 0.704532 0.293712 0.0508427
6348 1 0.798846 0.246782 0.0394796
6387 1 0.798154 0.309589 0.0394658
5199 1 0.688259 0.289663 0.128923
5200 2 0.693852 0.303851 0.145576
5763 1 0.697742 0.339507 0.168005
5764 2 0.697825 0.337371 0.190484
5765 2 0.67873 0.35081 0.163462
5157 1 0.689777 0.226522 0.145649
5158 2 0.690663 0.248709 0.141548
5159 2 0.690094 0.216966 0.125193
6268 2 0.796154 0.264036 0.143424
5759 2 0.711503 0.248202 0.0167007
6350 2 0.781043 0.244098 0.0531083
4669 2 0.605437 0.255455 0.0997047
4670 2 0.616045 0.289543 0.0987591
5241 1 0.652174 0.321703 0.0862199
4752 1 0.603839 0.326985 0.0365641
4716 1 0.603236 0.337255 0.164963
5243 2 0.634898 0.321224 0.071688
5803 2 0.713228 0.312569 0.0597136
5804 2 0.682913 0.298813 0.046783
6390 1 0.773752 0.320598 0.0984269
6391 2 0.752142 0.324421 0.0931093
5280 1 0.67087 0.379763 0.101266
5281 2 0.657939 0.395417 0.0913869
5282 2 0.672501 0.386505 0.122755
5844 1 0.718665 0.347898 0.0680682
5845 2 0.705596 0.362847 0.0788202
5846 2 0.736433 0.359933 0.0610435
6389 2 0.791231 0.317513 0.0594447
6392 2 0.777154 0.332587 0.117257
5242 2 0.656394 0.343674 0.0892754
6393 1 0.752172 0.370082 0.158783
6394 2 0.767089 0.356108 0.168378
5889 1 0.657861 0.394974 0.167716
5891 2 0.649249 0.392123 0.188394
6395 2 0.732368 0.359403 0.160695
6897 1 0.798321 0.325144 0.182605
5162 2 0.691227 0.20182 0.176892
6267 1 0.776688 0.272286 0.151355
6269 2 0.768368 0.255736 0.164268
5721 1 0.749207 0.222356 0.180626
5723 2 0.730853 0.225541 0.167863
4718 2 0.608292 0.354454 0.151233
6898 2 0.788605 0.306187 0.175113
5238 1 0.681993 0.357834 0.0122939
4753 2 0.607271 0.345805 0.0245682
5841 1 0.76182 0.393807 0.0427287
5842 2 0.781752 0.393828 0.0533394
4667 2 0.631168 0.273509 0.00923176
4749 1 0.613529 0.38568 0.00125939
5240 2 0.671099 0.339211 0.00563012
342 1 0.935074 0.337809 0.0124448
7523 2 0.986474 0.290122 0.0851061
6349 2 0.803123 0.268946 0.0400511
6388 2 0.818257 0.319331 0.0361696
6351 1 0.822279 0.22924 0.112349
6352 2 0.805882 0.217656 0.102015
6353 2 0.834838 0.213452 0.122492
6933 1 0.888189 0.308944 0.0477986
6935 2 0.905014 0.31043 0.0328126
6939 1 0.837333 0.292217 0.116811
6940 2 0.832014 0.271953 0.108386
6934 2 0.871821 0.321933 0.0392394
6936 1 0.851374 0.214894 0.0212706
6937 2 0.836041 0.229709 0.0287065
7481 2 0.948593 0.214895 0.0495516
7482 1 0.879346 0.257923 0.151654
7483 2 0.865231 0.272244 0.141381
7484 2 0.894404 0.252429 0.135749
7521 1 0.964068 0.289552 0.0878454
7524 1 0.900857 0.257061 0.08953
7525 2 0.923054 0.260319 0.0869712
7526 2 0.891282 0.273322 0.0771293
7448 2 0.950009 0.213017 0.146955
7485 1 0.975472 0.252679 0.14245
7486 2 0.977577 0.26683 0.12498
7527 1 0.898426 0.311895 0.190333
7528 2 0.8912 0.293734 0.179026
7480 2 0.965288 0.241197 0.0670134
7566 1 0.888553 0.341315 0.109409
7567 2 0.886273 0.327379 0.091789
7568 2 0.873963 0.333472 0.124755
7487 2 0.976257 0.266009 0.160659
6893 2 0.887425 0.21092 0.0421716
6892 2 0.901545 0.206404 0.0746624
7479 1 0.967713 0.219693 0.0605639
344 2 0.955962 0.329795 0.0155034
6975 1 0.845455 0.355044 0.0297749
6941 2 0.817423 0.30197 0.121094
7522 2 0.957388 0.310829 0.0843029
7571 2 0.912985 0.366013 0.137781
222 1 0.973677 0.356865 0.0963552
223 2 0.993437 0.367589 0.094256
224 2 0.958964 0.369874 0.0852104
261 1 0.919696 0.381194 0.0647145
262 2 0.921415 0.36801 0.0464633
263 2 0.906111 0.369783 0.0786824
6976 2 0.835122 0.365543 0.0468883
6978 1 0.814697 0.386883 0.0793466
6980 2 0.808818 0.382544 0.100712
7020 1 0.824815 0.382586 0.140369
7021 2 0.817319 0.364095 0.150941
7022 2 0.828556 0.397459 0.156942
7569 1 0.933158 0.373729 0.144369
7570 2 0.947816 0.364143 0.130117
227 2 0.994478 0.312986 0.198642
225 1 0.992837 0.290639 0.195851
6900 1 0.833991 0.232079 0.19611
6901 2 0.849536 0.240491 0.182058
7489 2 0.925715 0.205291 0.190017
7612 2 0.935474 0.391029 0.18466
6977 2 0.859215 0.370666 0.0210294
6938 2 0.844268 0.209295 0.000581555
891 1 0.00288978 0.412625 0.0298773
355 2 0.048119 0.481634 0.18325
264 1 0.0163358 0.404914 0.0965859
265 2 0.0284885 0.423375 0.101212
266 2 0.00579467 0.409782 0.0772191
894 1 0.131122 0.422494 0.0806778
895 2 0.120294 0.440345 0.0720757
896 2 0.151311 0.430535 0.0868123
1438 2 0.138879 0.401209 0.0449194
309 1 0.0480795 0.45972 0.0270043
310 2 0.0406072 0.480148 0.0330648
311 2 0.0627343 0.454015 0.0432084
1528 2 0.115414 0.423161 0.121476
312 1 0.0490194 0.402546 0.19771
352 2 0.0706471 0.468867 0.0992999
2109 1 0.189111 0.453528 0.0911535
2110 2 0.192648 0.471934 0.103747
892 2 0.0162353 0.429889 0.0240701
1527 1 0.111062 0.410854 0.139901
351 1 0.0560658 0.454192 0.10835
354 1 0.0420842 0.463389 0.171392
1532 2 0.134525 0.464234 0.191433
1530 1 0.115402 0.452581 0.194335
1531 2 0.109195 0.446601 0.173464
356 2 0.0427355 0.446463 0.186323
353 2 0.0573625 0.457905 0.130586
2034 1 0.197422 0.403926 0.198853
980 2 0.108906 0.49827 0.119294
1524 1 0.172688 0.499022 0.18988
938 2 0.126932 0.476824 0.0447629
1565 2 0.180828 0.47948 0.0577858
936 1 0.106155 0.47243 0.052435
1563 1 0.169877 0.491902 0.0424353
978 1 0.125002 0.48569 0.128914
937 2 0.0971336 0.492763 0.0563136
7691 2 0.011031 0.49478 0.141628
1523 2 0.177857 0.472137 0.00306932
1020 1 0.0960158 0.570914 0.0387255
1022 2 0.0812786 0.560023 0.0255318
939 1 0.0759557 0.519846 0.0974976
940 2 0.057469 0.531125 0.091103
941 2 0.0922825 0.535441 0.0977978
1021 2 0.106749 0.585044 0.024761
1569 1 0.14047 0.549532 0.147729
1571 2 0.136329 0.555025 0.126222
393 1 0.0268735 0.566983 0.0961476
394 2 0.019389 0.573064 0.0757301
395 2 0.0369754 0.585494 0.104219
1566 1 0.131687 0.554692 0.0844541
1567 2 0.117979 0.558478 0.0669144
1568 2 0.152369 0.553963 0.0754213
2114 2 0.198608 0.527148 0.127808
2156 2 0.196413 0.581967 0.138085
2151 1 0.195555 0.549377 0.0659174
2152 2 0.196742 0.55478 0.0878101
1526 2 0.173895 0.50194 0.167521
7690 2 0.0124268 0.520856 0.117266
308 2 0.0338353 0.536889 0.0335881
944 2 0.0534562 0.541759 0.188215
981 1 0.0622642 0.577301 0.168806
982 2 0.0761846 0.578132 0.151046
983 2 0.0595838 0.598874 0.174913
1525 2 0.164782 0.518661 0.197734
1570 2 0.141351 0.569327 0.158559
2157 1 0.176188 0.596731 0.186763
2158 2 0.188362 0.579279 0.194321
306 1 0.0289747 0.517593 0.0442622
979 2 0.140405 0.500623 0.135959
2112 1 0.197153 0.504639 0.126759
1564 2 0.177521 0.512904 0.0456486
307 2 0.0102447 0.522184 0.056009
3753 1 0.354464 0.493484 0.0716696
3226 2 0.358043 0.498688 0.181012
1482 1 0.235331 0.410453 0.11394
1483 2 0.257392 0.409964 0.109148
2071 2 0.319892 0.401895 0.169177
1484 2 0.234443 0.414762 0.136087
3221 2 0.299536 0.413358 0.0742351
2069 2 0.234612 0.44387 0.0527876
2068 2 0.251736 0.412585 0.0546347
2067 1 0.236067 0.423691 0.0427592
3219 1 0.295919 0.423123 0.0942715
3220 2 0.316586 0.427458 0.102269
2075 2 0.256863 0.450278 0.168144
2111 2 0.205095 0.439003 0.0977423
3247 2 0.340814 0.41293 0.0224267
2658 1 0.353893 0.437471 0.109993
2659 2 0.371164 0.429038 0.121844
2660 2 0.363432 0.452216 0.0957983
3725 2 0.389979 0.425524 0.0442812
3225 1 0.342225 0.482714 0.183134
2691 1 0.257625 0.477192 0.0757514
3246 1 0.356494 0.42854 0.017914
2693 2 0.272551 0.461404 0.0819027
3248 2 0.344887 0.445912 0.0093487
2035 2 0.214637 0.416207 0.190936
2073 1 0.252818 0.429596 0.176255
2074 2 0.272003 0.418247 0.172646
3195 1 0.352859 0.418453 0.188205
3197 2 0.351859 0.440893 0.185897
2690 2 0.304043 0.483051 0.0131487
2149 2 0.246411 0.49826 0.0360743
2695 2 0.275774 0.488753 0.140357
3227 2 0.326431 0.492095 0.196265
2113 2 0.217315 0.497328 0.133824
2692 2 0.265967 0.496435 0.0841156
2694 1 0.255652 0.486347 0.150318
3755 2 0.351251 0.491485 0.0494084
2657 2 0.327013 0.497875 0.10776
2656 2 0.320041 0.491944 0.14228
2153 2 0.210644 0.562883 0.0559276
2154 1 0.20856 0.568765 0.124372
2155 2 0.229817 0.575916 0.126994
2728 2 0.2637 0.561105 0.0542251
2729 2 0.273329 0.549552 0.086617
2772 1 0.290665 0.572174 0.128285
2774 2 0.309114 0.583231 0.121409
3252 1 0.378921 0.541258 0.150183
2727 1 0.276322 0.545521 0.0646019
2773 2 0.296677 0.55041 0.12801
3254 2 0.370187 0.562046 0.148975
3777 1 0.391599 0.549242 0.085902
3779 2 0.371433 0.556623 0.0789225
3253 2 0.384877 0.536377 0.128957
2725 2 0.32135 0.557843 0.046145
2724 1 0.343489 0.562202 0.0452835
3754 2 0.369732 0.509993 0.0737264
2150 2 0.256962 0.524342 0.0140782
2726 2 0.351312 0.548587 0.0290569
3276 1 0.370158 0.512183 0.00562628
2696 2 0.256128 0.500851 0.167617
3255 1 0.294712 0.58412 0.189488
3256 2 0.311989 0.596911 0.196403
3257 2 0.295346 0.585451 0.166956
3277 2 0.391096 0.503781 0.00469572
2148 1 0.246942 0.504107 0.0142705
2655 1 0.311219 0.501032 0.123586
4270 2 0.524685 0.49526 0.112204
4271 2 0.559786 0.492832 0.106084
3222 1 0.411692 0.409871 0.131967
3223 2 0.419911 0.411982 0.111042
3724 2 0.422455 0.43107 0.0580653
3728 2 0.479302 0.411963 0.103813
4233 1 0.451761 0.46627 0.0270227
3723 1 0.404253 0.417847 0.0600033
4198 2 0.48208 0.4015 0.0539013
3726 1 0.468871 0.426306 0.0898363
3727 2 0.478356 0.446336 0.0941667
3759 1 0.483613 0.488064 0.103157
4235 2 0.4721 0.456802 0.0244614
4707 1 0.557509 0.406254 0.0477218
4709 2 0.574723 0.402096 0.0337123
4239 1 0.586892 0.470846 0.0839175
4240 2 0.578904 0.457258 0.0677491
4759 2 0.579949 0.409664 0.124583
4263 1 0.519331 0.460998 0.0357207
3760 2 0.476245 0.495014 0.123339
3693 1 0.439099 0.438535 0.184682
3694 2 0.446891 0.45721 0.174663
3695 2 0.426304 0.428592 0.168956
4203 1 0.526556 0.401339 0.177269
4204 2 0.539703 0.419311 0.17352
4788 1 0.562795 0.446117 0.153262
4789 2 0.575968 0.453126 0.17021
4790 2 0.554316 0.465104 0.144458
4269 1 0.544742 0.496675 0.122479
4265 2 0.529213 0.466004 0.0160442
3732 1 0.466331 0.495424 0.161989
4264 2 0.530281 0.442662 0.0430521
4234 2 0.455101 0.48292 0.0419056
4241 2 0.587938 0.491202 0.0742
4781 2 0.570335 0.48085 0.00348352
3756 1 0.455558 0.528259 0.0511512
3780 1 0.493199 0.58986 0.0503568
3804 1 0.45141 0.561288 0.134327
3806 2 0.436266 0.577457 0.129956
3825 1 0.427593 0.588221 0.0468319
3827 2 0.44955 0.593476 0.0472013
3778 2 0.405897 0.565855 0.0804746
3826 2 0.423599 0.582083 0.0254717
3758 2 0.440362 0.544936 0.0520757
4783 2 0.58023 0.53889 0.0518279
3782 2 0.491636 0.586489 0.0726294
3803 2 0.566545 0.598541 0.102855
3805 2 0.446763 0.554733 0.155429
4267 2 0.525042 0.575122 0.123309
4266 1 0.511094 0.566312 0.107892
4238 2 0.523519 0.542495 0.0752819
4268 2 0.49109 0.565236 0.118312
4237 2 0.528793 0.511289 0.0587341
4236 1 0.531021 0.533585 0.0559371
4782 1 0.597369 0.528885 0.0410574
3799 2 0.528164 0.588596 0.0174252
3734 2 0.483698 0.502348 0.174651
4289 2 0.535478 0.530981 0.00261658
3761 2 0.476034 0.503654 0.0886875
4290 1 0.426914 0.545808 0.196847
4292 2 0.407963 0.544851 0.184606
4293 1 0.514139 0.523529 0.196084
4295 2 0.522433 0.54257 0.187222
5358 1 0.576451 0.545906 0.165637
5359 2 0.565175 0.530958 0.153016
5360 2 0.584895 0.533713 0.182663
3757 2 0.475083 0.538638 0.0465767
3733 2 0.450993 0.511882 0.16393
5278 2 0.679492 0.401823 0.00721189
5277 1 0.670223 0.422061 0.00341941
5322 1 0.651265 0.481224 0.113078
5279 2 0.675977 0.43439 0.021441
5324 2 0.629947 0.485278 0.106831
4755 1 0.626465 0.412533 0.0653421
4756 2 0.622787 0.410428 0.043163
4757 2 0.639004 0.431215 0.0672526
4760 2 0.607326 0.400972 0.103361
5883 1 0.773008 0.457511 0.0241449
5323 2 0.662677 0.479763 0.0936483
5885 2 0.789087 0.468834 0.0352408
5886 1 0.675465 0.463061 0.0583263