ITEM: TIMESTEP
0
ITEM: NUMBER OF ATOMS
1753
ITEM: BOX BOUNDS pp ss pp
0.0000000000000000e+00 5.6634808161570760e+01
-4.3161520693613111e-03 4.3165836845682477e+01
-2.8317404080785380e-01 2.8317404080785380e-01
ITEM: ATOMS id type xs ys zs
1 4 0 9.998e-05 0.5
2 4 0.01 0.0228227 0.5
3 4 0.02 9.998e-05 0.5
4 4 0.03 0.0228227 0.5
5 4 0.04 9.998e-05 0.5
6 4 0.05 0.0228227 0.5
7 4 0.06 9.998e-05 0.5
8 4 0.07 0.0228227 0.5
9 4 0.08 9.998e-05 0.5
10 4 0.09 0.0228227 0.5
11 4 0.1 9.998e-05 0.5
12 4 0.11 0.0228227 0.5
13 4 0.12 9.998e-05 0.5
14 4 0.13 0.0228227 0.5
15 4 0.14 9.998e-05 0.5
16 4 0.15 0.0228227 0.5
17 4 0.16 9.998e-05 0.5
18 4 0.17 0.0228227 0.5
19 4 0.18 9.998e-05 0.5
20 4 0.19 0.0228227 0.5
21 4 0.2 9.998e-05 0.5
22 4 0.21 0.0228227 0.5
23 4 0.22 9.998e-05 0.5
24 4 0.23 0.0228227 0.5
25 4 0.24 9.998e-05 0.5
26 4 0.25 0.0228227 0.5
27 4 0.26 9.998e-05 0.5
28 4 0.27 0.0228227 0.5
29 4 0.28 9.998e-05 0.5
30 4 0.29 0.0228227 0.5
31 4 0.3 9.998e-05 0.5
32 4 0.31 0.0228227 0.5
33 4 0.32 9.998e-05 0.5
34 4 0.33 0.0228227 0.5
35 4 0.34 9.998e-05 0.5
36 4 0.35 0.0228227 0.5
37 4 0.36 9.998e-05 0.5
38 4 0.37 0.0228227 0.5
39 4 0.38 9.998e-05 0.5
40 4 0.39 0.0228227 0.5
41 4 0.4 9.998e-05 0.5
42 4 0.41 0.0228227 0.5
43 4 0.42 9.998e-05 0.5
44 4 0.43 0.0228227 0.5
45 4 0.44 9.998e-05 0.5
46 4 0.45 0.0228227 0.5
47 4 0.46 9.998e-05 0.5
48 4 0.47 0.0228227 0.5
49 4 0.48 9.998e-05 0.5
50 4 0.49 0.0228227 0.5
51 4 0.5 9.998e-05 0.5
52 4 0.51 0.0228227 0.5
53 4 0.52 9.998e-05 0.5
54 4 0.53 0.0228227 0.5
55 4 0.54 9.998e-05 0.5
56 4 0.55 0.0228227 0.5
57 4 0.56 9.998e-05 0.5
58 4 0.57 0.0228227 0.5
59 4 0.58 9.998e-05 0.5
60 4 0.59 0.0228227 0.5
61 4 0.6 9.998e-05 0.5
62 4 0.61 0.0228227 0.5
63 4 0.62 9.998e-05 0.5
64 4 0.63 0.0228227 0.5
65 4 0.64 9.998e-05 0.5
66 4 0.65 0.0228227 0.5
67 4 0.66 9.998e-05 0.5
68 4 0.67 0.0228227 0.5
69 4 0.68 9.998e-05 0.5
70 4 0.69 0.0228227 0.5
71 4 0.7 9.998e-05 0.5
72 4 0.71 0.0228227 0.5
73 4 0.72 9.998e-05 0.5
74 4 0.73 0.0228227 0.5
75 4 0.74 9.998e-05 0.5
76 4 0.75 0.0228227 0.5
77 4 0.76 9.998e-05 0.5
78 4 0.77 0.0228227 0.5
79 4 0.78 9.998e-05 0.5
80 4 0.79 0.0228227 0.5
81 4 0.8 9.998e-05 0.5
82 4 0.81 0.0228227 0.5
83 4 0.82 9.998e-05 0.5
84 4 0.83 0.0228227 0.5
85 4 0.84 9.998e-05 0.5
86 4 0.85 0.0228227 0.5
87 4 0.86 9.998e-05 0.5
88 4 0.87 0.0228227 0.5
89 4 0.88 9.998e-05 0.5
90 4 0.89 0.0228227 0.5
91 4 0.9 9.998e-05 0.5
92 4 0.91 0.0228227 0.5
93 4 0.92 9.998e-05 0.5
94 4 0.93 0.0228227 0.5
95 4 0.94 9.998e-05 0.5
96 4 0.95 0.0228227 0.5
97 4 0.96 9.998e-05 0.5
98 4 0.97 0.0228227 0.5
99 4 0.98 9.998e-05 0.5
100 4 0.99 0.0228227 0.5
101 4 0 0.0455454 0.5
103 4 0.02 0.0455454 0.5
105 4 0.04 0.0455454 0.5
107 4 0.06 0.0455454 0.5
109 4 0.08 0.0455454 0.5
111 4 0.1 0.0455454 0.5
113 4 0.12 0.0455454 0.5
115 4 0.14 0.0455454 0.5
117 4 0.16 0.0455454 0.5
119 4 0.18 0.0455454 0.5
121 4 0.2 0.0455454 0.5
123 4 0.22 0.0455454 0.5
125 4 0.24 0.0455454 0.5
127 4 0.26 0.0455454 0.5
129 4 0.28 0.0455454 0.5
131 4 0.3 0.0455454 0.5
133 4 0.32 0.0455454 0.5
135 4 0.34 0.0455454 0.5
137 4 0.36 0.0455454 0.5
139 4 0.38 0.0455454 0.5
141 4 0.4 0.0455454 0.5
143 4 0.42 0.0455454 0.5
145 4 0.44 0.0455454 0.5
147 4 0.46 0.0455454 0.5
149 4 0.48 0.0455454 0.5
151 4 0.5 0.0455454 0.5
153 4 0.52 0.0455454 0.5
155 4 0.54 0.0455454 0.5
157 4 0.56 0.0455454 0.5
159 4 0.58 0.0455454 0.5
161 4 0.6 0.0455454 0.5
163 4 0.62 0.0455454 0.5
165 4 0.64 0.0455454 0.5
167 4 0.66 0.0455454 0.5
169 4 0.68 0.0455454 0.5
171 4 0.7 0.0455454 0.5
173 4 0.72 0.0455454 0.5
175 4 0.74 0.0455454 0.5
177 4 0.76 0.0455454 0.5
179 4 0.78 0.0455454 0.5
181 4 0.8 0.0455454 0.5
183 4 0.82 0.0455454 0.5
185 4 0.84 0.0455454 0.5
187 4 0.86 0.0455454 0.5
189 4 0.88 0.0455454 0.5
191 4 0.9 0.0455454 0.5
193 4 0.92 0.0455454 0.5
195 4 0.94 0.0455454 0.5
197 4 0.96 0.0455454 0.5
199 4 0.98 0.0455454 0.5
102 1 0.01 0.0682682 0.5
201 1 0 0.0909909 0.5
203 1 0.02 0.0909909 0.5
104 1 0.03 0.0682682 0.5
205 1 0.04 0.0909909 0.5
106 1 0.05 0.0682682 0.5
108 1 0.07 0.0682682 0.5
207 1 0.06 0.0909909 0.5
110 1 0.09 0.0682682 0.5
209 1 0.08 0.0909909 0.5
112 1 0.11 0.0682682 0.5
211 1 0.1 0.0909909 0.5
213 1 0.12 0.0909909 0.5
114 1 0.13 0.0682682 0.5
215 1 0.14 0.0909909 0.5
116 1 0.15 0.0682682 0.5
118 1 0.17 0.0682682 0.5
217 1 0.16 0.0909909 0.5
120 1 0.19 0.0682682 0.5
219 1 0.18 0.0909909 0.5
122 1 0.21 0.0682682 0.5
221 1 0.2 0.0909909 0.5
223 1 0.22 0.0909909 0.5
124 1 0.23 0.0682682 0.5
225 1 0.24 0.0909909 0.5
126 1 0.25 0.0682682 0.5
128 1 0.27 0.0682682 0.5
227 1 0.26 0.0909909 0.5
130 1 0.29 0.0682682 0.5
229 1 0.28 0.0909909 0.5
132 1 0.31 0.0682682 0.5
231 1 0.3 0.0909909 0.5
233 1 0.32 0.0909909 0.5
134 1 0.33 0.0682682 0.5
235 1 0.34 0.0909909 0.5
136 1 0.35 0.0682682 0.5
138 1 0.37 0.0682682 0.5
237 1 0.36 0.0909909 0.5
140 1 0.39 0.0682682 0.5
239 1 0.38 0.0909909 0.5
142 1 0.41 0.0682682 0.5
241 1 0.4 0.0909909 0.5
243 1 0.42 0.0909909 0.5
144 1 0.43 0.0682682 0.5
245 1 0.44 0.0909909 0.5
146 1 0.45 0.0682682 0.5
148 1 0.47 0.0682682 0.5
247 1 0.46 0.0909909 0.5
150 1 0.49 0.0682682 0.5
249 1 0.48 0.0909909 0.5
152 1 0.51 0.0682682 0.5
251 1 0.5 0.0909909 0.5
253 1 0.52 0.0909909 0.5
154 1 0.53 0.0682682 0.5
255 1 0.54 0.0909909 0.5
156 1 0.55 0.0682682 0.5
158 1 0.57 0.0682682 0.5
257 1 0.56 0.0909909 0.5
160 1 0.59 0.0682682 0.5
259 1 0.58 0.0909909 0.5
162 1 0.61 0.0682682 0.5
261 1 0.6 0.0909909 0.5
263 1 0.62 0.0909909 0.5
164 1 0.63 0.0682682 0.5
265 1 0.64 0.0909909 0.5
166 1 0.65 0.0682682 0.5
168 1 0.67 0.0682682 0.5
267 1 0.66 0.0909909 0.5
170 1 0.69 0.0682682 0.5
269 1 0.68 0.0909909 0.5
172 1 0.71 0.0682682 0.5
271 1 0.7 0.0909909 0.5
273 1 0.72 0.0909909 0.5
174 1 0.73 0.0682682 0.5
275 1 0.74 0.0909909 0.5
176 1 0.75 0.0682682 0.5
178 1 0.77 0.0682682 0.5
277 1 0.76 0.0909909 0.5
180 1 0.79 0.0682682 0.5
279 1 0.78 0.0909909 0.5
182 1 0.81 0.0682682 0.5
281 1 0.8 0.0909909 0.5
283 1 0.82 0.0909909 0.5
184 1 0.83 0.0682682 0.5
285 1 0.84 0.0909909 0.5
186 1 0.85 0.0682682 0.5
188 1 0.87 0.0682682 0.5
287 1 0.86 0.0909909 0.5
190 1 0.89 0.0682682 0.5
289 1 0.88 0.0909909 0.5
192 1 0.91 0.0682682 0.5
291 1 0.9 0.0909909 0.5
293 1 0.92 0.0909909 0.5
194 1 0.93 0.0682682 0.5
295 1 0.94 0.0909909 0.5
196 1 0.95 0.0682682 0.5
198 1 0.97 0.0682682 0.5
297 1 0.96 0.0909909 0.5
200 1 0.99 0.0682682 0.5
299 1 0.98 0.0909909 0.5
202 1 0.01 0.113714 0.5
204 1 0.03 0.113714 0.5
206 1 0.05 0.113714 0.5
208 1 0.07 0.113714 0.5
210 1 0.09 0.113714 0.5
212 1 0.11 0.113714 0.5
214 1 0.13 0.113714 0.5
216 1 0.15 0.113714 0.5
218 1 0.17 0.113714 0.5
220 1 0.19 0.113714 0.5
222 1 0.21 0.113714 0.5
224 1 0.23 0.113714 0.5
226 1 0.25 0.113714 0.5
228 1 0.27 0.113714 0.5
230 1 0.29 0.113714 0.5
232 1 0.31 0.113714 0.5
234 1 0.33 0.113714 0.5
236 1 0.35 0.113714 0.5
238 1 0.37 0.113714 0.5
240 1 0.39 0.113714 0.5
242 1 0.41 0.113714 0.5
244 1 0.43 0.113714 0.5
246 1 0.45 0.113714 0.5
248 1 0.47 0.113714 0.5
250 1 0.49 0.113714 0.5
252 1 0.51 0.113714 0.5
254 1 0.53 0.113714 0.5
256 1 0.55 0.113714 0.5
258 1 0.57 0.113714 0.5
260 1 0.59 0.113714 0.5
262 1 0.61 0.113714 0.5
264 1 0.63 0.113714 0.5
266 1 0.65 0.113714 0.5
268 1 0.67 0.113714 0.5
270 1 0.69 0.113714 0.5
272 1 0.71 0.113714 0.5
274 1 0.73 0.113714 0.5
276 1 0.75 0.113714 0.5
278 1 0.77 0.113714 0.5
280 1 0.79 0.113714 0.5
282 1 0.81 0.113714 0.5
284 1 0.83 0.113714 0.5
286 1 0.85 0.113714 0.5
288 1 0.87 0.113714 0.5
290 1 0.89 0.113714 0.5
292 1 0.91 0.113714 0.5
294 1 0.93 0.113714 0.5
296 1 0.95 0.113714 0.5
298 1 0.97 0.113714 0.5
300 1 0.99 0.113714 0.5
301 1 0 0.136436 0.5
302 1 0.01 0.159159 0.5
303 1 0.02 0.136436 0.5
304 1 0.03 0.159159 0.5
305 1 0.04 0.136436 0.5
306 1 0.05 0.159159 0.5
307 1 0.06 0.136436 0.5
308 1 0.07 0.159159 0.5
309 1 0.08 0.136436 0.5
310 1 0.09 0.159159 0.5
311 1 0.1 0.136436 0.5
312 1 0.11 0.159159 0.5
313 1 0.12 0.136436 0.5
314 1 0.13 0.159159 0.5
315 1 0.14 0.136436 0.5
316 1 0.15 0.159159 0.5
317 1 0.16 0.136436 0.5
318 1 0.17 0.159159 0.5
319 1 0.18 0.136436 0.5
320 1 0.19 0.159159 0.5
321 1 0.2 0.136436 0.5
322 1 0.21 0.159159 0.5
323 1 0.22 0.136436 0.5
324 1 0.23 0.159159 0.5
325 1 0.24 0.136436 0.5
326 1 0.25 0.159159 0.5
327 1 0.26 0.136436 0.5
328 1 0.27 0.159159 0.5
329 1 0.28 0.136436 0.5
330 1 0.29 0.159159 0.5
331 1 0.3 0.136436 0.5
332 1 0.31 0.159159 0.5
333 1 0.32 0.136436 0.5
334 1 0.33 0.159159 0.5
335 1 0.34 0.136436 0.5
336 1 0.35 0.159159 0.5
337 1 0.36 0.136436 0.5
338 1 0.37 0.159159 0.5
339 1 0.38 0.136436 0.5
340 1 0.39 0.159159 0.5
341 1 0.4 0.136436 0.5
342 1 0.41 0.159159 0.5
343 1 0.42 0.136436 0.5
344 1 0.43 0.159159 0.5
345 1 0.44 0.136436 0.5
346 1 0.45 0.159159 0.5
347 1 0.46 0.136436 0.5
348 1 0.47 0.159159 0.5
349 1 0.48 0.136436 0.5
350 1 0.49 0.159159 0.5
351 1 0.5 0.136436 0.5
352 1 0.51 0.159159 0.5
353 1 0.52 0.136436 0.5
354 1 0.53 0.159159 0.5
355 1 0.54 0.136436 0.5
356 1 0.55 0.159159 0.5
357 1 0.56 0.136436 0.5
358 1 0.57 0.159159 0.5
359 1 0.58 0.136436 0.5
360 1 0.59 0.159159 0.5
361 1 0.6 0.136436 0.5
362 1 0.61 0.159159 0.5
363 1 0.62 0.136436 0.5
364 1 0.63 0.159159 0.5
365 1 0.64 0.136436 0.5
366 1 0.65 0.159159 0.5
367 1 0.66 0.136436 0.5
368 1 0.67 0.159159 0.5
369 1 0.68 0.136436 0.5
370 1 0.69 0.159159 0.5
371 1 0.7 0.136436 0.5
372 1 0.71 0.159159 0.5
373 1 0.72 0.136436 0.5
374 1 0.73 0.159159 0.5
375 1 0.74 0.136436 0.5
376 1 0.75 0.159159 0.5
377 1 0.76 0.136436 0.5
378 1 0.77 0.159159 0.5
379 1 0.78 0.136436 0.5
380 1 0.79 0.159159 0.5
381 1 0.8 0.136436 0.5
382 1 0.81 0.159159 0.5
383 1 0.82 0.136436 0.5
384 1 0.83 0.159159 0.5
385 1 0.84 0.136436 0.5
386 1 0.85 0.159159 0.5
387 1 0.86 0.136436 0.5
388 1 0.87 0.159159 0.5
389 1 0.88 0.136436 0.5
390 1 0.89 0.159159 0.5
391 1 0.9 0.136436 0.5
392 1 0.91 0.159159 0.5
393 1 0.92 0.136436 0.5
394 1 0.93 0.159159 0.5
395 1 0.94 0.136436 0.5
396 1 0.95 0.159159 0.5
397 1 0.96 0.136436 0.5
398 1 0.97 0.159159 0.5
399 1 0.98 0.136436 0.5
400 1 0.99 0.159159 0.5
401 1 0 0.181882 0.5
403 1 0.02 0.181882 0.5
405 1 0.04 0.181882 0.5
407 1 0.06 0.181882 0.5
409 1 0.08 0.181882 0.5
411 1 0.1 0.181882 0.5
413 1 0.12 0.181882 0.5
415 1 0.14 0.181882 0.5
417 1 0.16 0.181882 0.5
419 1 0.18 0.181882 0.5
421 1 0.2 0.181882 0.5
423 1 0.22 0.181882 0.5
425 1 0.24 0.181882 0.5
427 1 0.26 0.181882 0.5
429 1 0.28 0.181882 0.5
431 1 0.3 0.181882 0.5
433 1 0.32 0.181882 0.5
435 1 0.34 0.181882 0.5
437 1 0.36 0.181882 0.5
439 1 0.38 0.181882 0.5
441 1 0.4 0.181882 0.5
443 1 0.42 0.181882 0.5
445 1 0.44 0.181882 0.5
447 1 0.46 0.181882 0.5
449 1 0.48 0.181882 0.5
451 1 0.5 0.181882 0.5
453 1 0.52 0.181882 0.5
455 1 0.54 0.181882 0.5
457 1 0.56 0.181882 0.5
459 1 0.58 0.181882 0.5
461 1 0.6 0.181882 0.5
463 1 0.62 0.181882 0.5
465 1 0.64 0.181882 0.5
467 1 0.66 0.181882 0.5
469 1 0.68 0.181882 0.5
471 1 0.7 0.181882 0.5
473 1 0.72 0.181882 0.5
475 1 0.74 0.181882 0.5
477 1 0.76 0.181882 0.5
479 1 0.78 0.181882 0.5
481 1 0.8 0.181882 0.5
483 1 0.82 0.181882 0.5
485 1 0.84 0.181882 0.5
487 1 0.86 0.181882 0.5
489 1 0.88 0.181882 0.5
491 1 0.9 0.181882 0.5
493 1 0.92 0.181882 0.5
495 1 0.94 0.181882 0.5
497 1 0.96 0.181882 0.5
499 1 0.98 0.181882 0.5
402 1 0.01 0.204605 0.5
501 1 0 0.227327 0.5
503 1 0.02 0.227327 0.5
404 1 0.03 0.204605 0.5
505 1 0.04 0.227327 0.5
406 1 0.05 0.204605 0.5
408 1 0.07 0.204605 0.5
507 1 0.06 0.227327 0.5
410 1 0.09 0.204605 0.5
509 1 0.08 0.227327 0.5
412 1 0.11 0.204605 0.5
511 1 0.1 0.227327 0.5
513 1 0.12 0.227327 0.5
414 1 0.13 0.204605 0.5
515 1 0.14 0.227327 0.5
416 1 0.15 0.204605 0.5
418 1 0.17 0.204605 0.5
517 1 0.16 0.227327 0.5
420 1 0.19 0.204605 0.5
519 1 0.18 0.227327 0.5
422 1 0.21 0.204605 0.5
521 1 0.2 0.227327 0.5
523 1 0.22 0.227327 0.5
424 1 0.23 0.204605 0.5
525 1 0.24 0.227327 0.5
426 1 0.25 0.204605 0.5
428 1 0.27 0.204605 0.5
527 1 0.26 0.227327 0.5
430 1 0.29 0.204605 0.5
529 1 0.28 0.227327 0.5
432 1 0.31 0.204605 0.5
531 1 0.3 0.227327 0.5
533 1 0.32 0.227327 0.5
434 1 0.33 0.204605 0.5
535 1 0.34 0.227327 0.5
436 1 0.35 0.204605 0.5
438 1 0.37 0.204605 0.5
537 1 0.36 0.227327 0.5
440 1 0.39 0.204605 0.5
539 1 0.38 0.227327 0.5
442 1 0.41 0.204605 0.5
541 1 0.4 0.227327 0.5
543 1 0.42 0.227327 0.5
444 1 0.43 0.204605 0.5
545 1 0.44 0.227327 0.5
446 1 0.45 0.204605 0.5
448 1 0.47 0.204605 0.5
547 1 0.46 0.227327 0.5
450 1 0.49 0.204605 0.5
549 1 0.48 0.227327 0.5
452 1 0.51 0.204605 0.5
551 1 0.5 0.227327 0.5
553 1 0.52 0.227327 0.5
454 1 0.53 0.204605 0.5
555 1 0.54 0.227327 0.5
456 1 0.55 0.204605 0.5
458 1 0.57 0.204605 0.5
557 1 0.56 0.227327 0.5
460 1 0.59 0.204605 0.5
559 1 0.58 0.227327 0.5
462 1 0.61 0.204605 0.5
561 1 0.6 0.227327 0.5
563 1 0.62 0.227327 0.5
464 1 0.63 0.204605 0.5
565 1 0.64 0.227327 0.5
466 1 0.65 0.204605 0.5
468 1 0.67 0.204605 0.5
567 1 0.66 0.227327 0.5
470 1 0.69 0.204605 0.5
569 1 0.68 0.227327 0.5
472 1 0.71 0.204605 0.5
571 1 0.7 0.227327 0.5
573 1 0.72 0.227327 0.5
474 1 0.73 0.204605 0.5
575 1 0.74 0.227327 0.5
476 1 0.75 0.204605 0.5
478 1 0.77 0.204605 0.5
577 1 0.76 0.227327 0.5
480 1 0.79 0.204605 0.5
579 1 0.78 0.227327 0.5
482 1 0.81 0.204605 0.5
581 1 0.8 0.227327 0.5
583 1 0.82 0.227327 0.5
484 1 0.83 0.204605 0.5
585 1 0.84 0.227327 0.5
486 1 0.85 0.204605 0.5
488 1 0.87 0.204605 0.5
587 1 0.86 0.227327 0.5
490 1 0.89 0.204605 0.5
589 1 0.88 0.227327 0.5
492 1 0.91 0.204605 0.5
591 1 0.9 0.227327 0.5
593 1 0.92 0.227327 0.5
494 1 0.93 0.204605 0.5
595 1 0.94 0.227327 0.5
496 1 0.95 0.204605 0.5
498 1 0.97 0.204605 0.5
597 1 0.96 0.227327 0.5
500 1 0.99 0.204605 0.5
599 1 0.98 0.227327 0.5
502 1 0.01 0.25005 0.5
504 1 0.03 0.25005 0.5
506 1 0.05 0.25005 0.5
508 1 0.07 0.25005 0.5
510 1 0.09 0.25005 0.5
512 1 0.11 0.25005 0.5
514 1 0.13 0.25005 0.5
516 1 0.15 0.25005 0.5
518 1 0.17 0.25005 0.5
520 1 0.19 0.25005 0.5
522 1 0.21 0.25005 0.5
524 1 0.23 0.25005 0.5
526 1 0.25 0.25005 0.5
528 1 0.27 0.25005 0.5
530 1 0.29 0.25005 0.5
532 1 0.31 0.25005 0.5
534 1 0.33 0.25005 0.5
536 1 0.35 0.25005 0.5
538 1 0.37 0.25005 0.5
540 1 0.39 0.25005 0.5
542 1 0.41 0.25005 0.5
544 1 0.43 0.25005 0.5
546 1 0.45 0.25005 0.5
548 1 0.47 0.25005 0.5
550 1 0.49 0.25005 0.5
552 1 0.51 0.25005 0.5
554 1 0.53 0.25005 0.5
556 1 0.55 0.25005 0.5
558 1 0.57 0.25005 0.5
560 1 0.59 0.25005 0.5
562 1 0.61 0.25005 0.5
564 1 0.63 0.25005 0.5
566 1 0.65 0.25005 0.5
568 1 0.67 0.25005 0.5
570 1 0.69 0.25005 0.5
572 1 0.71 0.25005 0.5
574 1 0.73 0.25005 0.5
576 1 0.75 0.25005 0.5
578 1 0.77 0.25005 0.5
580 1 0.79 0.25005 0.5
582 1 0.81 0.25005 0.5
584 1 0.83 0.25005 0.5
586 1 0.85 0.25005 0.5
588 1 0.87 0.25005 0.5
590 1 0.89 0.25005 0.5
592 1 0.91 0.25005 0.5
594 1 0.93 0.25005 0.5
596 1 0.95 0.25005 0.5
598 1 0.97 0.25005 0.5
600 1 0.99 0.25005 0.5
601 1 0 0.272773 0.5
602 1 0.01 0.295495 0.5
603 1 0.02 0.272773 0.5
604 1 0.03 0.295495 0.5
605 1 0.04 0.272773 0.5
606 1 0.05 0.295495 0.5
607 1 0.06 0.272773 0.5
608 1 0.07 0.295495 0.5
609 1 0.08 0.272773 0.5
610 1 0.09 0.295495 0.5
611 1 0.1 0.272773 0.5
612 1 0.11 0.295495 0.5
613 1 0.12 0.272773 0.5
614 1 0.13 0.295495 0.5
615 1 0.14 0.272773 0.5
616 1 0.15 0.295495 0.5
617 1 0.16 0.272773 0.5
618 1 0.17 0.295495 0.5
619 1 0.18 0.272773 0.5
620 1 0.19 0.295495 0.5
621 1 0.2 0.272773 0.5
622 1 0.21 0.295495 0.5
623 1 0.22 0.272773 0.5
624 1 0.23 0.295495 0.5
625 1 0.24 0.272773 0.5
626 1 0.25 0.295495 0.5
627 1 0.26 0.272773 0.5
628 1 0.27 0.295495 0.5
629 1 0.28 0.272773 0.5
630 1 0.29 0.295495 0.5
631 1 0.3 0.272773 0.5
632 1 0.31 0.295495 0.5
633 1 0.32 0.272773 0.5
634 1 0.33 0.295495 0.5
635 1 0.34 0.272773 0.5
636 1 0.35 0.295495 0.5
637 1 0.36 0.272773 0.5
638 1 0.37 0.295495 0.5
639 1 0.38 0.272773 0.5
640 1 0.39 0.295495 0.5
641 1 0.4 0.272773 0.5
642 1 0.41 0.295495 0.5
643 1 0.42 0.272773 0.5
644 1 0.43 0.295495 0.5
645 1 0.44 0.272773 0.5
646 1 0.45 0.295495 0.5
647 1 0.46 0.272773 0.5
648 1 0.47 0.295495 0.5
649 1 0.48 0.272773 0.5
650 1 0.49 0.295495 0.5
651 1 0.5 0.272773 0.5
652 1 0.51 0.295495 0.5
653 1 0.52 0.272773 0.5
654 1 0.53 0.295495 0.5
655 1 0.54 0.272773 0.5
656 1 0.55 0.295495 0.5
657 1 0.56 0.272773 0.5
658 1 0.57 0.295495 0.5
659 1 0.58 0.272773 0.5
660 1 0.59 0.295495 0.5
661 1 0.6 0.272773 0.5
662 1 0.61 0.295495 0.5
663 1 0.62 0.272773 0.5
664 1 0.63 0.295495 0.5
665 1 0.64 0.272773 0.5
666 1 0.65 0.295495 0.5
667 1 0.66 0.272773 0.5
668 1 0.67 0.295495 0.5
669 1 0.68 0.272773 0.5
670 1 0.69 0.295495 0.5
671 1 0.7 0.272773 0.5
672 1 0.71 0.295495 0.5
673 1 0.72 0.272773 0.5
674 1 0.73 0.295495 0.5
675 1 0.74 0.272773 0.5
676 1 0.75 0.295495 0.5
677 1 0.76 0.272773 0.5
678 1 0.77 0.295495 0.5
679 1 0.78 0.272773 0.5
680 1 0.79 0.295495 0.5
681 1 0.8 0.272773 0.5
682 1 0.81 0.295495 0.5
683 1 0.82 0.272773 0.5
684 1 0.83 0.295495 0.5
685 1 0.84 0.272773 0.5
686 1 0.85 0.295495 0.5
687 1 0.86 0.272773 0.5
688 1 0.87 0.295495 0.5
689 1 0.88 0.272773 0.5
690 1 0.89 0.295495 0.5
691 1 0.9 0.272773 0.5
692 1 0.91 0.295495 0.5
693 1 0.92 0.272773 0.5
694 1 0.93 0.295495 0.5
695 1 0.94 0.272773 0.5
696 1 0.95 0.295495 0.5
697 1 0.96 0.272773 0.5
698 1 0.97 0.295495 0.5
699 1 0.98 0.272773 0.5
700 1 0.99 0.295495 0.5
701 1 0 0.318218 0.5
702 1 0.02 0.318218 0.5
703 1 0.04 0.318218 0.5
704 1 0.06 0.318218 0.5
705 1 0.08 0.318218 0.5
706 1 0.1 0.318218 0.5
707 1 0.12 0.318218 0.5
708 1 0.14 0.318218 0.5
709 1 0.16 0.318218 0.5
710 1 0.18 0.318218 0.5
711 1 0.2 0.318218 0.5
712 1 0.22 0.318218 0.5
713 1 0.24 0.318218 0.5
714 1 0.26 0.318218 0.5
715 1 0.28 0.318218 0.5
716 1 0.3 0.318218 0.5
717 1 0.32 0.318218 0.5
718 1 0.34 0.318218 0.5
719 1 0.36 0.318218 0.5
720 1 0.38 0.318218 0.5
721 1 0.4 0.318218 0.5
722 1 0.42 0.318218 0.5
723 1 0.44 0.318218 0.5
724 1 0.46 0.318218 0.5
725 1 0.48 0.318218 0.5
726 1 0.5 0.318218 0.5
727 1 0.52 0.318218 0.5
728 1 0.54 0.318218 0.5
729 1 0.56 0.318218 0.5
730 1 0.58 0.318218 0.5
731 1 0.6 0.318218 0.5
732 1 0.62 0.318218 0.5
733 1 0.64 0.318218 0.5
734 1 0.66 0.318218 0.5
735 1 0.68 0.318218 0.5
736 1 0.7 0.318218 0.5
737 1 0.72 0.318218 0.5
738 1 0.74 0.318218 0.5
739 1 0.76 0.318218 0.5
740 1 0.78 0.318218 0.5
741 1 0.8 0.318218 0.5
742 1 0.82 0.318218 0.5
743 1 0.84 0.318218 0.5
744 1 0.86 0.318218 0.5
745 1 0.88 0.318218 0.5
746 1 0.9 0.318218 0.5
747 1 0.92 0.318218 0.5
748 1 0.94 0.318218 0.5
749 1 0.96 0.318218 0.5
750 1 0.98 0.318218 0.5
1501 2 0.49 0.340941 0.5
1502 2 0.51 0.340941 0.5
1518 2 0.5 0.363664 0.5
1520 2 0.52 0.363664 0.5
1503 2 0.53 0.340941 0.5
1522 2 0.54 0.363664 0.5
1504 2 0.55 0.340941 0.5
1505 2 0.57 0.340941 0.5
1524 2 0.56 0.363664 0.5
1506 2 0.59 0.340941 0.5
1526 2 0.58 0.363664 0.5
1507 2 0.61 0.340941 0.5
1528 2 0.6 0.363664 0.5
1530 2 0.62 0.363664 0.5
1508 2 0.63 0.340941 0.5
1532 2 0.64 0.363664 0.5
1509 2 0.65 0.340941 0.5
1510 2 0.67 0.340941 0.5
1534 2 0.66 0.363664 0.5
1511 2 0.69 0.340941 0.5
1536 2 0.68 0.363664 0.5
1512 2 0.71 0.340941 0.5
1538 2 0.7 0.363664 0.5
1540 2 0.72 0.363664 0.5
1513 2 0.73 0.340941 0.5
1542 2 0.74 0.363664 0.5
1514 2 0.75 0.340941 0.5
1515 2 0.77 0.340941 0.5
1544 2 0.76 0.363664 0.5
1516 2 0.79 0.340941 0.5
1546 2 0.78 0.363664 0.5
1517 2 0.49 0.386386 0.5
1519 2 0.51 0.386386 0.5
1521 2 0.53 0.386386 0.5
1523 2 0.55 0.386386 0.5
1525 2 0.57 0.386386 0.5
1527 2 0.59 0.386386 0.5
1529 2 0.61 0.386386 0.5
1531 2 0.63 0.386386 0.5
1533 2 0.65 0.386386 0.5
1535 2 0.67 0.386386 0.5
1537 2 0.69 0.386386 0.5
1539 2 0.71 0.386386 0.5
1541 2 0.73 0.386386 0.5
1543 2 0.75 0.386386 0.5
1545 2 0.77 0.386386 0.5
1547 2 0.79 0.386386 0.5
1548 2 0.5 0.409109 0.5
1549 2 0.51 0.431832 0.5
1550 2 0.52 0.409109 0.5
1551 2 0.53 0.431832 0.5
1552 2 0.54 0.409109 0.5
1553 2 0.55 0.431832 0.5
1554 2 0.56 0.409109 0.5
1555 2 0.57 0.431832 0.5
1556 2 0.58 0.409109 0.5
1557 2 0.59 0.431832 0.5
1558 2 0.6 0.409109 0.5
1559 2 0.61 0.431832 0.5
1560 2 0.62 0.409109 0.5
1561 2 0.63 0.431832 0.5
1562 2 0.64 0.409109 0.5
1563 2 0.65 0.431832 0.5
1564 2 0.66 0.409109 0.5
1565 2 0.67 0.431832 0.5
1566 2 0.68 0.409109 0.5
1567 2 0.69 0.431832 0.5
1568 2 0.7 0.409109 0.5
1569 2 0.71 0.431832 0.5
1570 2 0.72 0.409109 0.5
1571 2 0.73 0.431832 0.5
1572 2 0.74 0.409109 0.5
1573 2 0.75 0.431832 0.5
1574 2 0.76 0.409109 0.5
1575 2 0.77 0.431832 0.5
1576 2 0.78 0.409109 0.5
1616 3 0.32 0.454555 0.5
1618 3 0.34 0.454555 0.5
1620 3 0.36 0.454555 0.5
1622 3 0.38 0.454555 0.5
1624 3 0.4 0.454555 0.5
1577 2 0.52 0.454555 0.5
1578 2 0.54 0.454555 0.5
1580 2 0.56 0.454555 0.5
1582 2 0.58 0.454555 0.5
1584 2 0.6 0.454555 0.5
1586 2 0.62 0.454555 0.5
1588 2 0.64 0.454555 0.5
1590 2 0.66 0.454555 0.5
1592 2 0.68 0.454555 0.5
1594 2 0.7 0.454555 0.5
1596 2 0.72 0.454555 0.5
1598 2 0.74 0.454555 0.5
1599 2 0.76 0.454555 0.5
1613 3 0.27 0.477277 0.5
1630 3 0.26 0.5 0.5
1614 3 0.29 0.477277 0.5
1632 3 0.28 0.5 0.5
1615 3 0.31 0.477277 0.5
1634 3 0.3 0.5 0.5
1636 3 0.32 0.5 0.5
1617 3 0.33 0.477277 0.5
1638 3 0.34 0.5 0.5
1619 3 0.35 0.477277 0.5
1621 3 0.37 0.477277 0.5
1640 3 0.36 0.5 0.5
1623 3 0.39 0.477277 0.5
1642 3 0.38 0.5 0.5
1625 3 0.41 0.477277 0.5
1644 3 0.4 0.5 0.5
1646 3 0.42 0.5 0.5
1626 3 0.43 0.477277 0.5
1648 3 0.44 0.5 0.5
1627 3 0.45 0.477277 0.5
1650 3 0.46 0.5 0.5
1579 2 0.55 0.477277 0.5
1581 2 0.57 0.477277 0.5
1600 2 0.56 0.5 0.5
1583 2 0.59 0.477277 0.5
1601 2 0.58 0.5 0.5
1585 2 0.61 0.477277 0.5
1602 2 0.6 0.5 0.5
1604 2 0.62 0.5 0.5
1587 2 0.63 0.477277 0.5
1606 2 0.64 0.5 0.5
1589 2 0.65 0.477277 0.5
1591 2 0.67 0.477277 0.5
1608 2 0.66 0.5 0.5
1593 2 0.69 0.477277 0.5
1610 2 0.68 0.5 0.5
1595 2 0.71 0.477277 0.5
1611 2 0.7 0.5 0.5
1612 2 0.72 0.5 0.5
1597 2 0.73 0.477277 0.5
1628 3 0.23 0.522723 0.5
1629 3 0.25 0.522723 0.5
1631 3 0.27 0.522723 0.5
1633 3 0.29 0.522723 0.5
1635 3 0.31 0.522723 0.5
1637 3 0.33 0.522723 0.5
1639 3 0.35 0.522723 0.5
1641 3 0.37 0.522723 0.5
1643 3 0.39 0.522723 0.5
1645 3 0.41 0.522723 0.5
1647 3 0.43 0.522723 0.5
1649 3 0.45 0.522723 0.5
1651 3 0.47 0.522723 0.5
1652 3 0.49 0.522723 0.5
1603 2 0.61 0.522723 0.5
1605 2 0.63 0.522723 0.5
1607 2 0.65 0.522723 0.5
1609 2 0.67 0.522723 0.5
1654 3 0.22 0.545445 0.5
1656 3 0.24 0.545445 0.5
1658 3 0.26 0.545445 0.5
1660 3 0.28 0.545445 0.5
1662 3 0.3 0.545445 0.5
1664 3 0.32 0.545445 0.5
1666 3 0.34 0.545445 0.5
1668 3 0.36 0.545445 0.5
1670 3 0.38 0.545445 0.5
1672 3 0.4 0.545445 0.5
1674 3 0.42 0.545445 0.5
1676 3 0.44 0.545445 0.5
1678 3 0.46 0.545445 0.5
1680 3 0.48 0.545445 0.5
1682 3 0.5 0.545445 0.5
1653 3 0.21 0.568168 0.5
1685 3 0.2 0.590891 0.5
1687 3 0.22 0.590891 0.5
1655 3 0.23 0.568168 0.5
1689 3 0.24 0.590891 0.5
1657 3 0.25 0.568168 0.5
1659 3 0.27 0.568168 0.5
1691 3 0.26 0.590891 0.5
1661 3 0.29 0.568168 0.5
1693 3 0.28 0.590891 0.5
1663 3 0.31 0.568168 0.5
1695 3 0.3 0.590891 0.5
1697 3 0.32 0.590891 0.5
1665 3 0.33 0.568168 0.5
1699 3 0.34 0.590891 0.5
1667 3 0.35 0.568168 0.5
1669 3 0.37 0.568168 0.5
1701 3 0.36 0.590891 0.5
1671 3 0.39 0.568168 0.5
1703 3 0.38 0.590891 0.5
1673 3 0.41 0.568168 0.5
1705 3 0.4 0.590891 0.5
1707 3 0.42 0.590891 0.5
1675 3 0.43 0.568168 0.5
1709 3 0.44 0.590891 0.5
1677 3 0.45 0.568168 0.5
1679 3 0.47 0.568168 0.5
1711 3 0.46 0.590891 0.5
1681 3 0.49 0.568168 0.5
1713 3 0.48 0.590891 0.5
1683 3 0.51 0.568168 0.5
1715 3 0.5 0.590891 0.5
1717 3 0.52 0.590891 0.5
1684 3 0.19 0.613614 0.5
1686 3 0.21 0.613614 0.5
1688 3 0.23 0.613614 0.5
1690 3 0.25 0.613614 0.5
1692 3 0.27 0.613614 0.5
1694 3 0.29 0.613614 0.5
1696 3 0.31 0.613614 0.5
1698 3 0.33 0.613614 0.5
1700 3 0.35 0.613614 0.5
1702 3 0.37 0.613614 0.5
1704 3 0.39 0.613614 0.5
1706 3 0.41 0.613614 0.5
1708 3 0.43 0.613614 0.5
1710 3 0.45 0.613614 0.5
1712 3 0.47 0.613614 0.5
1714 3 0.49 0.613614 0.5
1716 3 0.51 0.613614 0.5
1718 3 0.53 0.613614 0.5
1719 3 0.19 0.659059 0.5
1720 3 0.2 0.636336 0.5
1721 3 0.21 0.659059 0.5
1722 3 0.22 0.636336 0.5
1723 3 0.23 0.659059 0.5
1724 3 0.24 0.636336 0.5
1725 3 0.25 0.659059 0.5
1726 3 0.26 0.636336 0.5
1727 3 0.27 0.659059 0.5
1728 3 0.28 0.636336 0.5
1729 3 0.29 0.659059 0.5
1730 3 0.3 0.636336 0.5
1731 3 0.31 0.659059 0.5
1732 3 0.32 0.636336 0.5
1733 3 0.33 0.659059 0.5
1734 3 0.34 0.636336 0.5
1735 3 0.35 0.659059 0.5
1736 3 0.36 0.636336 0.5
1737 3 0.37 0.659059 0.5
1738 3 0.38 0.636336 0.5
1739 3 0.39 0.659059 0.5
1740 3 0.4 0.636336 0.5
1741 3 0.41 0.659059 0.5
1742 3 0.42 0.636336 0.5
1743 3 0.43 0.659059 0.5
1744 3 0.44 0.636336 0.5
1745 3 0.45 0.659059 0.5
1746 3 0.46 0.636336 0.5
1747 3 0.47 0.659059 0.5
1748 3 0.48 0.636336 0.5
1749 3 0.49 0.659059 0.5
1750 3 0.5 0.636336 0.5
1751 3 0.51 0.659059 0.5
1752 3 0.52 0.636336 0.5
1753 3 0.53 0.659059 0.5
751 1 0 0.681782 0.5
753 1 0.02 0.681782 0.5
755 1 0.04 0.681782 0.5
757 1 0.06 0.681782 0.5
759 1 0.08 0.681782 0.5
761 1 0.1 0.681782 0.5
763 1 0.12 0.681782 0.5
765 1 0.14 0.681782 0.5
767 1 0.16 0.681782 0.5
769 1 0.18 0.681782 0.5
771 1 0.2 0.681782 0.5
773 1 0.22 0.681782 0.5
775 1 0.24 0.681782 0.5
777 1 0.26 0.681782 0.5
779 1 0.28 0.681782 0.5
781 1 0.3 0.681782 0.5
783 1 0.32 0.681782 0.5
785 1 0.34 0.681782 0.5
787 1 0.36 0.681782 0.5
789 1 0.38 0.681782 0.5
791 1 0.4 0.681782 0.5
793 1 0.42 0.681782 0.5
795 1 0.44 0.681782 0.5
797 1 0.46 0.681782 0.5
799 1 0.48 0.681782 0.5
801 1 0.5 0.681782 0.5
803 1 0.52 0.681782 0.5
805 1 0.54 0.681782 0.5
807 1 0.56 0.681782 0.5
809 1 0.58 0.681782 0.5
811 1 0.6 0.681782 0.5
813 1 0.62 0.681782 0.5
815 1 0.64 0.681782 0.5
817 1 0.66 0.681782 0.5
819 1 0.68 0.681782 0.5
821 1 0.7 0.681782 0.5
823 1 0.72 0.681782 0.5
825 1 0.74 0.681782 0.5
827 1 0.76 0.681782 0.5
829 1 0.78 0.681782 0.5
831 1 0.8 0.681782 0.5
833 1 0.82 0.681782 0.5
835 1 0.84 0.681782 0.5
837 1 0.86 0.681782 0.5
839 1 0.88 0.681782 0.5
841 1 0.9 0.681782 0.5
843 1 0.92 0.681782 0.5
845 1 0.94 0.681782 0.5
847 1 0.96 0.681782 0.5
849 1 0.98 0.681782 0.5
752 1 0.01 0.704505 0.5
851 1 0 0.727227 0.5
853 1 0.02 0.727227 0.5
754 1 0.03 0.704505 0.5
855 1 0.04 0.727227 0.5
756 1 0.05 0.704505 0.5
758 1 0.07 0.704505 0.5
857 1 0.06 0.727227 0.5
760 1 0.09 0.704505 0.5
859 1 0.08 0.727227 0.5
762 1 0.11 0.704505 0.5
861 1 0.1 0.727227 0.5
863 1 0.12 0.727227 0.5
764 1 0.13 0.704505 0.5
865 1 0.14 0.727227 0.5
766 1 0.15 0.704505 0.5
768 1 0.17 0.704505 0.5
867 1 0.16 0.727227 0.5
770 1 0.19 0.704505 0.5
869 1 0.18 0.727227 0.5
772 1 0.21 0.704505 0.5
871 1 0.2 0.727227 0.5
873 1 0.22 0.727227 0.5
774 1 0.23 0.704505 0.5
875 1 0.24 0.727227 0.5
776 1 0.25 0.704505 0.5
778 1 0.27 0.704505 0.5
877 1 0.26 0.727227 0.5
780 1 0.29 0.704505 0.5
879 1 0.28 0.727227 0.5
782 1 0.31 0.704505 0.5
881 1 0.3 0.727227 0.5
883 1 0.32 0.727227 0.5
784 1 0.33 0.704505 0.5
885 1 0.34 0.727227 0.5
786 1 0.35 0.704505 0.5
788 1 0.37 0.704505 0.5
887 1 0.36 0.727227 0.5
790 1 0.39 0.704505 0.5
889 1 0.38 0.727227 0.5
792 1 0.41 0.704505 0.5
891 1 0.4 0.727227 0.5
893 1 0.42 0.727227 0.5
794 1 0.43 0.704505 0.5
895 1 0.44 0.727227 0.5
796 1 0.45 0.704505 0.5
798 1 0.47 0.704505 0.5
897 1 0.46 0.727227 0.5
800 1 0.49 0.704505 0.5
899 1 0.48 0.727227 0.5
802 1 0.51 0.704505 0.5
901 1 0.5 0.727227 0.5
903 1 0.52 0.727227 0.5
804 1 0.53 0.704505 0.5
905 1 0.54 0.727227 0.5
806 1 0.55 0.704505 0.5
808 1 0.57 0.704505 0.5
907 1 0.56 0.727227 0.5
810 1 0.59 0.704505 0.5
909 1 0.58 0.727227 0.5
812 1 0.61 0.704505 0.5
911 1 0.6 0.727227 0.5
913 1 0.62 0.727227 0.5
814 1 0.63 0.704505 0.5
915 1 0.64 0.727227 0.5
816 1 0.65 0.704505 0.5
818 1 0.67 0.704505 0.5
917 1 0.66 0.727227 0.5
820 1 0.69 0.704505 0.5
919 1 0.68 0.727227 0.5
822 1 0.71 0.704505 0.5
921 1 0.7 0.727227 0.5
923 1 0.72 0.727227 0.5
824 1 0.73 0.704505 0.5
925 1 0.74 0.727227 0.5
826 1 0.75 0.704505 0.5
828 1 0.77 0.704505 0.5
927 1 0.76 0.727227 0.5
830 1 0.79 0.704505 0.5
929 1 0.78 0.727227 0.5
832 1 0.81 0.704505 0.5
931 1 0.8 0.727227 0.5
933 1 0.82 0.727227 0.5
834 1 0.83 0.704505 0.5
935 1 0.84 0.727227 0.5
836 1 0.85 0.704505 0.5
838 1 0.87 0.704505 0.5
937 1 0.86 0.727227 0.5
840 1 0.89 0.704505 0.5
939 1 0.88 0.727227 0.5
842 1 0.91 0.704505 0.5
941 1 0.9 0.727227 0.5
943 1 0.92 0.727227 0.5
844 1 0.93 0.704505 0.5
945 1 0.94 0.727227 0.5
846 1 0.95 0.704505 0.5
848 1 0.97 0.704505 0.5
947 1 0.96 0.727227 0.5
850 1 0.99 0.704505 0.5
949 1 0.98 0.727227 0.5
852 1 0.01 0.74995 0.5
854 1 0.03 0.74995 0.5
856 1 0.05 0.74995 0.5
858 1 0.07 0.74995 0.5
860 1 0.09 0.74995 0.5
862 1 0.11 0.74995 0.5
864 1 0.13 0.74995 0.5
866 1 0.15 0.74995 0.5
868 1 0.17 0.74995 0.5
870 1 0.19 0.74995 0.5
872 1 0.21 0.74995 0.5
874 1 0.23 0.74995 0.5
876 1 0.25 0.74995 0.5
878 1 0.27 0.74995 0.5
880 1 0.29 0.74995 0.5
882 1 0.31 0.74995 0.5
884 1 0.33 0.74995 0.5
886 1 0.35 0.74995 0.5
888 1 0.37 0.74995 0.5
890 1 0.39 0.74995 0.5
892 1 0.41 0.74995 0.5
894 1 0.43 0.74995 0.5
896 1 0.45 0.74995 0.5
898 1 0.47 0.74995 0.5
900 1 0.49 0.74995 0.5
902 1 0.51 0.74995 0.5
904 1 0.53 0.74995 0.5
906 1 0.55 0.74995 0.5
908 1 0.57 0.74995 0.5
910 1 0.59 0.74995 0.5
912 1 0.61 0.74995 0.5
914 1 0.63 0.74995 0.5
916 1 0.65 0.74995 0.5
918 1 0.67 0.74995 0.5
920 1 0.69 0.74995 0.5
922 1 0.71 0.74995 0.5
924 1 0.73 0.74995 0.5
926 1 0.75 0.74995 0.5
928 1 0.77 0.74995 0.5
930 1 0.79 0.74995 0.5
932 1 0.81 0.74995 0.5
934 1 0.83 0.74995 0.5
936 1 0.85 0.74995 0.5
938 1 0.87 0.74995 0.5
940 1 0.89 0.74995 0.5
942 1 0.91 0.74995 0.5
944 1 0.93 0.74995 0.5
946 1 0.95 0.74995 0.5
948 1 0.97 0.74995 0.5
950 1 0.99 0.74995 0.5
951 1 0 0.772673 0.5
952 1 0.01 0.795395 0.5
953 1 0.02 0.772673 0.5
954 1 0.03 0.795395 0.5
955 1 0.04 0.772673 0.5
956 1 0.05 0.795395 0.5
957 1 0.06 0.772673 0.5
958 1 0.07 0.795395 0.5
959 1 0.08 0.772673 0.5
960 1 0.09 0.795395 0.5
961 1 0.1 0.772673 0.5
962 1 0.11 0.795395 0.5
963 1 0.12 0.772673 0.5
964 1 0.13 0.795395 0.5
965 1 0.14 0.772673 0.5
966 1 0.15 0.795395 0.5
967 1 0.16 0.772673 0.5
968 1 0.17 0.795395 0.5
969 1 0.18 0.772673 0.5
970 1 0.19 0.795395 0.5
971 1 0.2 0.772673 0.5
972 1 0.21 0.795395 0.5
973 1 0.22 0.772673 0.5
974 1 0.23 0.795395 0.5
975 1 0.24 0.772673 0.5
976 1 0.25 0.795395 0.5
977 1 0.26 0.772673 0.5
978 1 0.27 0.795395 0.5
979 1 0.28 0.772673 0.5
980 1 0.29 0.795395 0.5
981 1 0.3 0.772673 0.5
982 1 0.31 0.795395 0.5
983 1 0.32 0.772673 0.5
984 1 0.33 0.795395 0.5
985 1 0.34 0.772673 0.5