ITEM: TIMESTEP
0
ITEM: NUMBER OF ATOMS
66
ITEM: BOX BOUNDS pp pp pp
-2.3407027419979162e+01 2.3407027419979162e+01
-8.7776352824922288e+00 8.7776352824922288e+00
-8.7776352824922288e+00 8.7776352824922288e+00
ITEM: ATOMS id type xs ys zs
2 5 0.0215112 0.443037 0.5
8 5 0.0514168 0.443037 0.5
12 5 0.111228 0.443037 0.5
15 5 0.171039 0.443037 0.5
19 5 0.23085 0.443037 0.5
22 5 0.290661 0.443037 0.5
26 5 0.350472 0.443037 0.5
29 5 0.410283 0.443037 0.5
33 5 0.470094 0.443037 0.5
36 5 0.529906 0.443037 0.5
40 5 0.589717 0.443037 0.5
43 5 0.649528 0.443037 0.5
47 5 0.709339 0.443037 0.5
50 5 0.76915 0.443037 0.5
54 5 0.828961 0.443037 0.5
5 7 0.991606 0.443037 0.5
57 5 0.888772 0.443037 0.5
61 5 0.948583 0.443037 0.5
64 5 0.978489 0.443037 0.5
1 3 0.0215112 0.5 0.5
3 5 0.0215112 0.556963 0.5
6 3 0.0514168 0.5 0.5
7 5 0.0514168 0.556963 0.5
9 4 0.0813223 0.5 0.5
10 3 0.111228 0.5 0.5
11 5 0.111228 0.556963 0.5
65 6 0.00839433 0.5 0.5
66 7 0.00839433 0.556963 0.5
13 3 0.171039 0.5 0.5
14 5 0.171039 0.556963 0.5
16 4 0.200945 0.5 0.5
17 3 0.23085 0.5 0.5
18 5 0.23085 0.556963 0.5
20 3 0.290661 0.5 0.5
21 5 0.290661 0.556963 0.5
23 4 0.320567 0.5 0.5
24 3 0.350472 0.5 0.5
25 5 0.350472 0.556963 0.5
27 3 0.410283 0.5 0.5
28 5 0.410283 0.556963 0.5
30 4 0.440189 0.5 0.5
31 3 0.470094 0.5 0.5
32 5 0.470094 0.556963 0.5
34 3 0.529906 0.5 0.5
35 5 0.529906 0.556963 0.5
37 4 0.559811 0.5 0.5
38 3 0.589717 0.5 0.5
39 5 0.589717 0.556963 0.5
41 3 0.649528 0.5 0.5
42 5 0.649528 0.556963 0.5
44 4 0.679433 0.5 0.5
45 3 0.709339 0.5 0.5
46 5 0.709339 0.556963 0.5
48 3 0.76915 0.5 0.5
49 5 0.76915 0.556963 0.5
51 4 0.799055 0.5 0.5
52 3 0.828961 0.5 0.5
53 5 0.828961 0.556963 0.5
4 6 0.991606 0.5 0.5
55 3 0.888772 0.5 0.5
56 5 0.888772 0.556963 0.5
58 4 0.918678 0.5 0.5
59 3 0.948583 0.5 0.5
60 5 0.948583 0.556963 0.5
62 3 0.978489 0.5 0.5
63 5 0.978489 0.556963 0.5
ITEM: TIMESTEP
10
ITEM: NUMBER OF ATOMS
66
ITEM: BOX BOUNDS pp pp pp
-2.3407027419979162e+01 2.3407027419979162e+01
-8.7776352824922288e+00 8.7776352824922288e+00
-8.7776352824922288e+00 8.7776352824922288e+00
ITEM: ATOMS id type xs ys zs
2 5 0.0217181 0.441816 0.500001
8 5 0.0514178 0.443036 0.5
12 5 0.111228 0.443036 0.5
15 5 0.171039 0.443036 0.5
19 5 0.23085 0.443036 0.5
22 5 0.290661 0.443036 0.5
26 5 0.350472 0.443036 0.499999
29 5 0.410283 0.443036 0.500001
33 5 0.470095 0.443036 0.5
36 5 0.529905 0.443036 0.5
40 5 0.589717 0.443037 0.500001
43 5 0.649528 0.443037 0.499999
47 5 0.709339 0.443036 0.500001
50 5 0.76915 0.443036 0.5
54 5 0.828961 0.443036 0.5
5 7 0.991608 0.443038 0.5
57 5 0.888772 0.443036 0.5
61 5 0.948582 0.443036 0.499999
64 5 0.97828 0.441815 0.499997
1 3 0.0394366 0.500078 0.499992
3 5 0.0217167 0.558165 0.5
6 3 0.0514267 0.499973 0.50001
7 5 0.0514179 0.556964 0.5
9 4 0.0813223 0.499992 0.499981
10 3 0.111229 0.500016 0.500028
11 5 0.111228 0.556964 0.5
65 6 0.0121387 0.499959 0.499948
66 7 0.00839233 0.556962 0.5
13 3 0.171038 0.50001 0.500003
14 5 0.171039 0.556964 0.5
16 4 0.200945 0.499964 0.499954
17 3 0.230851 0.500034 0.500052
18 5 0.23085 0.556964 0.5
20 3 0.29066 0.49999 0.499977
21 5 0.290661 0.556964 0.5
23 4 0.320567 0.499964 0.499794
24 3 0.350473 0.499855 0.500324
25 5 0.350472 0.556964 0.499999
27 3 0.410282 0.500579 0.499887
28 5 0.410283 0.556964 0.500001
30 4 0.440189 0.499597 0.500002
31 3 0.470096 0.500003 0.5
32 5 0.470095 0.556964 0.5
34 3 0.529904 0.499998 0.499999
35 5 0.529905 0.556964 0.5
37 4 0.559811 0.499218 0.499994
38 3 0.589718 0.500872 0.499386
39 5 0.589717 0.556964 0.500001
41 3 0.649527 0.500488 0.501522
42 5 0.649528 0.556964 0.499999
44 4 0.679433 0.499459 0.499446
45 3 0.70934 0.499965 0.499649
46 5 0.709339 0.556964 0.500001
48 3 0.769149 0.499996 0.500012
49 5 0.76915 0.556964 0.5
51 4 0.799055 0.500017 0.499972
52 3 0.828962 0.499979 0.500024
53 5 0.828961 0.556964 0.5
4 6 0.987861 0.499946 0.500232
55 3 0.888771 0.500009 0.499997
56 5 0.888772 0.556964 0.5
58 4 0.918678 0.500015 0.499807
59 3 0.948573 0.499939 0.500416
60 5 0.948582 0.556964 0.499999
62 3 0.960564 0.500123 0.499599
63 5 0.978286 0.558164 0.499997
ITEM: TIMESTEP
20
ITEM: NUMBER OF ATOMS
66
ITEM: BOX BOUNDS pp pp pp
-2.3407027419979162e+01 2.3407027419979162e+01
-8.7776352824922288e+00 8.7776352824922288e+00
-8.7776352824922288e+00 8.7776352824922288e+00
ITEM: ATOMS id type xs ys zs
2 5 0.0249191 0.413209 0.500274
8 5 0.0518971 0.442936 0.499976
12 5 0.111203 0.442866 0.499876
15 5 0.171077 0.442871 0.499929
19 5 0.230815 0.442872 0.499915
22 5 0.290703 0.442865 0.499965
26 5 0.350468 0.442865 0.499841
29 5 0.410312 0.442884 0.500104
33 5 0.47005 0.44287 0.500008
36 5 0.529948 0.44287 0.500046
40 5 0.589717 0.442893 0.500159
43 5 0.649517 0.442886 0.499835
47 5 0.709319 0.442868 0.500126
50 5 0.769186 0.442865 0.499909
54 5 0.828923 0.442863 0.499919
5 7 0.991592 0.443263 0.500007
57 5 0.888808 0.442869 0.499916
61 5 0.948089 0.442946 0.499969
64 5 0.975027 0.413084 0.499409
1 3 0.0568323 0.500445 0.496971
3 5 0.0249553 0.586835 0.500295
6 3 0.0575117 0.499579 0.504
7 5 0.0519165 0.557046 0.500012
9 4 0.0813749 0.500389 0.499143
10 3 0.111656 0.49968 0.500759
11 5 0.111203 0.557132 0.499876
65 6 0.0179049 0.500108 0.496343
66 7 0.00840819 0.556734 0.5
13 3 0.170592 0.500573 0.500403
14 5 0.171078 0.557137 0.499929
16 4 0.200944 0.49906 0.499484
17 3 0.231292 0.500525 0.50038
18 5 0.230814 0.557138 0.499915
20 3 0.290208 0.499842 0.500566
21 5 0.290703 0.557131 0.499965
23 4 0.320567 0.500008 0.498783
24 3 0.350851 0.499919 0.50121
25 5 0.350468 0.55713 0.499841
27 3 0.409855 0.501047 0.499765
28 5 0.410314 0.55715 0.500107
30 4 0.440188 0.498639 0.499847
31 3 0.470554 0.500458 0.500119
32 5 0.470049 0.557136 0.500008
34 3 0.529452 0.500392 0.499548
35 5 0.529948 0.557136 0.500046
37 4 0.559813 0.498335 0.500362
38 3 0.590086 0.501324 0.49891
39 5 0.589715 0.557157 0.500166
41 3 0.64918 0.500723 0.502258
42 5 0.649519 0.557143 0.499831
44 4 0.679429 0.49894 0.498554
45 3 0.70975 0.500236 0.499991
46 5 0.709318 0.557134 0.500126
48 3 0.768708 0.499729 0.500536
49 5 0.769185 0.557131 0.49991
51 4 0.799056 0.500591 0.499263
52 3 0.829407 0.499525 0.500441
53 5 0.828923 0.557129 0.49992
4 6 0.982075 0.499741 0.505315
55 3 0.888321 0.500207 0.500661
56 5 0.888808 0.557135 0.499916
58 4 0.918625 0.499909 0.498974
59 3 0.942338 0.500061 0.502826
60 5 0.948095 0.557057 0.499983
62 3 0.943329 0.500134 0.496139
63 5 0.975109 0.586642 0.499422
ITEM: TIMESTEP
30
ITEM: NUMBER OF ATOMS
66
ITEM: BOX BOUNDS pp pp pp
-2.3407027419979162e+01 2.3407027419979162e+01
-8.7776352824922288e+00 8.7776352824922288e+00
-8.7776352824922288e+00 8.7776352824922288e+00
ITEM: ATOMS id type xs ys zs
2 5 0.028003 0.407801 0.501027
8 5 0.0550895 0.443756 0.500486
12 5 0.110921 0.441248 0.498898
15 5 0.17142 0.441945 0.499397
19 5 0.230467 0.441958 0.499434
22 5 0.291044 0.441281 0.499105
26 5 0.350238 0.441376 0.498604
29 5 0.410668 0.442107 0.500332
33 5 0.469694 0.441926 0.49971
36 5 0.530264 0.441806 0.500738
40 5 0.589494 0.442078 0.501181
43 5 0.649632 0.441823 0.498501
47 5 0.708936 0.441729 0.499833
50 5 0.769581 0.441013 0.499098
54 5 0.828499 0.440924 0.499214
5 7 0.990821 0.446711 0.501713
57 5 0.889098 0.441603 0.49909
61 5 0.944892 0.443815 0.500654
64 5 0.971862 0.406715 0.495476
1 3 0.0496482 0.500087 0.500848
3 5 0.028315 0.59358 0.501399
6 3 0.0654679 0.499142 0.520071
7 5 0.0551456 0.556048 0.500693
9 4 0.0841431 0.501511 0.491049
10 3 0.115482 0.498892 0.50637
11 5 0.110932 0.558415 0.49895
65 6 0.00939598 0.50371 0.453187
66 7 0.00903559 0.553628 0.498843
13 3 0.167067 0.503525 0.503431
14 5 0.171523 0.559141 0.499305
16 4 0.200943 0.492152 0.495431
17 3 0.234852 0.503585 0.503026
18 5 0.23036 0.559159 0.499351
20 3 0.286775 0.49893 0.506405
21 5 0.29104 0.558417 0.499148
23 4 0.32055 0.500709 0.491156
24 3 0.354138 0.499344 0.507794
25 5 0.350224 0.558481 0.498637
27 3 0.406215 0.504193 0.499594
28 5 0.410808 0.559325 0.500366
30 4 0.440182 0.490855 0.498112
31 3 0.47414 0.503366 0.502648
32 5 0.469567 0.559128 0.499655
34 3 0.52597 0.502242 0.494586
35 5 0.530367 0.558967 0.500824
37 4 0.559805 0.492594 0.505326
38 3 0.593534 0.503201 0.493925
39 5 0.589371 0.559231 0.501369
41 3 0.64599 0.501644 0.508668
42 5 0.649708 0.558872 0.498367
44 4 0.679438 0.495248 0.491983
45 3 0.713329 0.502262 0.504196
46 5 0.70888 0.558935 0.499782
48 3 0.765224 0.497223 0.504978
49 5 0.769513 0.558181 0.499194
51 4 0.799056 0.505969 0.493428
52 3 0.832904 0.49692 0.504337
53 5 0.828585 0.558109 0.499311
4 6 0.98843 0.495879 0.549254
55 3 0.884483 0.501248 0.506061
56 5 0.889114 0.558776 0.499037
58 4 0.915705 0.498768 0.490626
59 3 0.934594 0.500603 0.515967
60 5 0.944955 0.556316 0.500662
62 3 0.952257 0.500147 0.474244
63 5 0.972218 0.591725 0.495915
ITEM: TIMESTEP
40
ITEM: NUMBER OF ATOMS
66
ITEM: BOX BOUNDS pp pp pp
-2.3407027419979162e+01 2.3407027419979162e+01
-8.7776352824922288e+00 8.7776352824922288e+00
-8.7776352824922288e+00 8.7776352824922288e+00
ITEM: ATOMS id type xs ys zs
2 5 0.0269578 0.428026 0.501393
8 5 0.0611422 0.444776 0.499431
12 5 0.111199 0.440085 0.497208
15 5 0.171674 0.442936 0.49812
19 5 0.230353 0.443086 0.498387
22 5 0.291153 0.439609 0.496575
26 5 0.350236 0.4401 0.495808
29 5 0.410847 0.443389 0.500741
33 5 0.469611 0.442835 0.498409
36 5 0.530227 0.441835 0.502822
40 5 0.589559 0.442421 0.503354
43 5 0.649493 0.441773 0.49595
47 5 0.708779 0.442133 0.498366
50 5 0.77002 0.438119 0.496629
54 5 0.827852 0.437687 0.49683
5 7 0.993527 0.459574 0.51752
57 5 0.888752 0.442226 0.497994
61 5 0.939535 0.443716 0.503189
64 5 0.972826 0.428976 0.485882
1 3 0.0302042 0.498333 0.523622
3 5 0.0272949 0.571813 0.503584
6 3 0.0668761 0.498462 0.531208
7 5 0.0613034 0.553673 0.500139
9 4 0.0904799 0.502471 0.486127
10 3 0.120243 0.498147 0.511733
11 5 0.111266 0.557929 0.4977
65 6 -0.00880314 0.519831 0.437014
66 7 0.00528613 0.539889 0.481428
13 3 0.165904 0.504544 0.507752
14 5 0.172364 0.562924 0.497289
16 4 0.201123 0.484177 0.492104
17 3 0.236817 0.504487 0.50718
18 5 0.229644 0.562768 0.497647
20 3 0.285283 0.498222 0.513793
21 5 0.291127 0.558398 0.497108
23 4 0.320512 0.501794 0.486757
24 3 0.355673 0.498779 0.514628
25 5 0.350174 0.558602 0.496273
27 3 0.403963 0.505008 0.499678
28 5 0.411712 0.563273 0.500924
30 4 0.440142 0.482156 0.495716
31 3 0.476147 0.50376 0.507836
32 5 0.468784 0.562383 0.497769
34 3 0.524332 0.501312 0.486631
35 5 0.530743 0.560645 0.503291
37 4 0.559876 0.490398 0.510764
38 3 0.595598 0.501944 0.487707
39 5 0.589072 0.561099 0.504135
41 3 0.644059 0.501093 0.514064
42 5 0.649834 0.560095 0.495457
44 4 0.679497 0.492877 0.487549
45 3 0.715051 0.502832 0.511396
46 5 0.708466 0.561488 0.497723
48 3 0.763561 0.496514 0.510998
49 5 0.769568 0.55738 0.497555
51 4 0.798906 0.511499 0.488605
52 3 0.833893 0.496254 0.510398
53 5 0.828372 0.557404 0.497719
4 6 1.00818 0.483875 0.559649
55 3 0.879734 0.502049 0.511934
56 5 0.888868 0.559988 0.497487
58 4 0.909324 0.497394 0.484709
59 3 0.935155 0.502293 0.520787
60 5 0.939682 0.55801 0.502506
62 3 0.967872 0.498684 0.461143
63 5 0.973095 0.569747 0.488175
ITEM: TIMESTEP
50
ITEM: NUMBER OF ATOMS
66
ITEM: BOX BOUNDS pp pp pp
-2.3407027419979162e+01 2.3407027419979162e+01
-8.7776352824922288e+00 8.7776352824922288e+00
-8.7776352824922288e+00 8.7776352824922288e+00
ITEM: ATOMS id type xs ys zs
2 5 0.0316196 0.450128 0.478714
8 5 0.0740837 0.440832 0.496796
12 5 0.124953 0.442087 0.495757
15 5 0.17232 0.45258 0.483859
19 5 0.236845 0.451449 0.488011
22 5 0.285923 0.442914 0.485729
26 5 0.355274 0.44355 0.483335
29 5 0.411107 0.44618 0.503593
33 5 0.473391 0.44734 0.480016
36 5 0.52553 0.444462 0.518863
40 5 0.593503 0.444644 0.519476
43 5 0.645151 0.446373 0.481681
47 5 0.712859 0.449637 0.488381
50 5 0.762938 0.441396 0.485239
54 5 0.827857 0.440368 0.481788
5 7 1.00504 0.468015 0.550123
57 5 0.876739 0.447488 0.500686
61 5 0.930554 0.447453 0.515739
64 5 0.97112 0.442008 0.485874
1 3 0.0386149 0.494257 0.519878
3 5 0.0303229 0.552411 0.496866
6 3 0.0770309 0.494639 0.532802
7 5 0.0734125 0.551853 0.501139
9 4 0.103279 0.504375 0.500372
10 3 0.131199 0.494583 0.528219
11 5 0.12434 0.549239 0.500496
65 6 0.973862 0.527509 0.427694
66 7 -0.00788071 0.537961 0.450637
13 3 0.175599 0.507417 0.516764
14 5 0.172097 0.559645 0.481746
16 4 0.207276 0.47962 0.511488
17 3 0.239663 0.506293 0.520192
18 5 0.236187 0.559207 0.485923
20 3 0.287593 0.494789 0.522701
21 5 0.287043 0.550074 0.48921
23 4 0.321501 0.506684 0.497066
24 3 0.355987 0.495987 0.519659
25 5 0.35422 0.551528 0.486614
27 3 0.40419 0.506684 0.510648
28 5 0.412336 0.565727 0.504528
30 4 0.439249 0.481997 0.498958
31 3 0.474635 0.503801 0.510473
32 5 0.47191 0.558076 0.478319
34 3 0.524079 0.500042 0.486938
35 5 0.526576 0.555313 0.517913
37 4 0.559233 0.496232 0.511833
38 3 0.594373 0.500465 0.487622
39 5 0.592909 0.555731 0.519225
41 3 0.643145 0.502048 0.514154
42 5 0.645881 0.555866 0.480681
44 4 0.678022 0.4917 0.49448
45 3 0.711826 0.505118 0.521099
46 5 0.713632 0.55766 0.485705
48 3 0.759863 0.493913 0.520424
49 5 0.762649 0.549099 0.488558
51 4 0.792139 0.518518 0.505551
52 3 0.824155 0.493222 0.51582
53 5 0.827361 0.549076 0.48469
4 6 0.0222829 0.482628 0.56818
55 3 0.86784 0.504847 0.516926
56 5 0.875964 0.561492 0.495489
58 4 0.89374 0.495227 0.474269
59 3 0.922959 0.506194 0.495095
60 5 0.930602 0.565984 0.507189
62 3 0.960539 0.499093 0.473192
63 5 0.969752 0.537274 0.518916
ITEM: TIMESTEP
60
ITEM: NUMBER OF ATOMS
66
ITEM: BOX BOUNDS pp pp pp
-2.3407027419979162e+01 2.3407027419979162e+01
-8.7776352824922288e+00 8.7776352824922288e+00
-8.7776352824922288e+00 8.7776352824922288e+00
ITEM: ATOMS id type xs ys zs
2 5 0.0448215 0.452273 0.474242
8 5 0.0883591 0.439566 0.49625
12 5 0.138015 0.442498 0.498408
15 5 0.180931 0.453643 0.469666
19 5 0.243703 0.454427 0.476106
22 5 0.28889 0.440525 0.483041
26 5 0.360957 0.441512 0.479573
29 5 0.406211 0.451738 0.484695
33 5 0.476018 0.452527 0.476335
36 5 0.522158 0.445168 0.530823
40 5 0.594671 0.445399 0.530112
43 5 0.640851 0.450144 0.47741
47 5 0.709329 0.451252 0.483109
50 5 0.755064 0.439873 0.475091
54 5 0.818749 0.439387 0.469462
5 7 0.0181022 0.472822 0.556197
57 5 0.865292 0.447419 0.49677
61 5 0.914303 0.458911 0.546892
64 5 0.956338 0.440315 0.481018
1 3 0.0527374 0.494531 0.518841
3 5 0.0439838 0.551159 0.4968
6 3 0.0896395 0.492734 0.534057
7 5 0.0878363 0.550068 0.502775
9 4 0.116047 0.500652 0.501805
10 3 0.143133 0.495248 0.533173
11 5 0.136488 0.550615 0.50511
65 6 0.957084 0.530506 0.425726
66 7 0.977498 0.53568 0.432805
13 3 0.18507 0.503067 0.510872
14 5 0.180622 0.558543 0.477717
16 4 0.215369 0.486633 0.536148
17 3 0.246342 0.50578 0.514059
18 5 0.244593 0.559313 0.478375
20 3 0.292614 0.492316 0.521334
21 5 0.29053 0.547014 0.487501
23 4 0.325983 0.517161 0.51143
24 3 0.35938 0.491649 0.519939
25 5 0.359929 0.546363 0.486293
27 3 0.407881 0.50528 0.520429
28 5 0.405195 0.558785 0.485465
30 4 0.441501 0.484084 0.500723
31 3 0.475693 0.505994 0.512733
32 5 0.475581 0.557061 0.473126
34 3 0.524319 0.498701 0.495408
35 5 0.523783 0.553861 0.528819
37 4 0.558521 0.498587 0.521454
38 3 0.592509 0.499071 0.494703
39 5 0.593502 0.553785 0.528957
41 3 0.64079 0.504521 0.51243
42 5 0.641367 0.556285 0.474059
44 4 0.674317 0.487881 0.493852
45 3 0.70717 0.505858 0.517521
46 5 0.711125 0.558535 0.480835
48 3 0.753527 0.492758 0.511408
49 5 0.755443 0.546336 0.476546
51 4 0.784715 0.519026 0.522249
52 3 0.814931 0.494144 0.50418
53 5 0.818108 0.546371 0.467048
4 6 0.0373369 0.481266 0.570949
55 3 0.857452 0.504616 0.517896
56 5 0.863079 0.5588 0.486454
58 4 0.883298 0.49934 0.478874
59 3 0.910717 0.507701 0.505003
60 5 0.914798 0.565018 0.533747
62 3 0.946455 0.499721 0.47841
63 5 0.959243 0.528182 0.526761
ITEM: TIMESTEP
70
ITEM: NUMBER OF ATOMS
66
ITEM: BOX BOUNDS pp pp pp
-2.3407027419979162e+01 2.3407027419979162e+01
-8.7776352824922288e+00 8.7776352824922288e+00
-8.7776352824922288e+00 8.7776352824922288e+00
ITEM: ATOMS id type xs ys zs
2 5 0.0603904 0.452449 0.474695
8 5 0.1036 0.439061 0.497752
12 5 0.150166 0.442344 0.501086
15 5 0.193086 0.453959 0.46362
19 5 0.250498 0.454775 0.468223
22 5 0.29763 0.437726 0.479716
26 5 0.362978 0.439841 0.476873
29 5 0.408748 0.455217 0.477456
33 5 0.47642 0.453936 0.476019
36 5 0.522057 0.444776 0.53719
40 5 0.592419 0.444834 0.535048
43 5 0.63786 0.45208 0.478062
47 5 0.702151 0.452231 0.479016
50 5 0.747529 0.441439 0.468376
54 5 0.807227 0.442211 0.466679
5 7 0.0329771 0.477951 0.557372
57 5 0.85132 0.44703 0.495436
61 5 0.899867 0.46281 0.560935
64 5 0.939282 0.43938 0.479042
1 3 0.0677117 0.493836 0.520376
3 5 0.0595098 0.551466 0.499379
6 3 0.104402 0.4922 0.535882
7 5 0.103312 0.549817 0.504569
9 4 0.129736 0.498904 0.502194
10 3 0.156209 0.495369 0.534734
11 5 0.149472 0.55218 0.508868
65 6 0.938671 0.532848 0.430781
66 7 0.95989 0.53219 0.42939
13 3 0.196293 0.500761 0.508754
14 5 0.19283 0.557329 0.478574
16 4 0.225346 0.494791 0.5401
17 3 0.254635 0.503499 0.509837
18 5 0.252866 0.558227 0.477544
20 3 0.299296 0.489926 0.51722
21 5 0.298395 0.543855 0.480933
23 4 0.331005 0.518766 0.523087
24 3 0.363155 0.490287 0.515567
25 5 0.361662 0.544274 0.479374
27 3 0.409802 0.507923 0.515824
28 5 0.407069 0.560468 0.480067
30 4 0.443009 0.480203 0.509
31 3 0.476131 0.507801 0.512387
32 5 0.476269 0.559363 0.473866
34 3 0.523846 0.497052 0.499864
35 5 0.523963 0.552217 0.533764
37 4 0.557012 0.502897 0.526142
38 3 0.590029 0.497832 0.498629
39 5 0.590754 0.55265 0.533027
41 3 0.63709 0.506534 0.512979
42 5 0.638061 0.557964 0.474245
44 4 0.669268 0.483997 0.496805
45 3 0.701064 0.506261 0.515059
46 5 0.703044 0.559999 0.478972
48 3 0.745728 0.496678 0.500293
49 5 0.749027 0.546127 0.459965
51 4 0.77526 0.50414 0.529708
52 3 0.804089 0.498949 0.496589
53 5 0.806735 0.546095 0.451828
4 6 0.0534767 0.480224 0.572183
55 3 0.844527 0.504878 0.519083
56 5 0.850347 0.556592 0.482999
58 4 0.870599 0.500737 0.483952
59 3 0.896346 0.508197 0.514844
60 5 0.900351 0.566122 0.543621
62 3 0.930906 0.499927 0.483657
63 5 0.945593 0.5236 0.530888
ITEM: TIMESTEP
80
ITEM: NUMBER OF ATOMS
66
ITEM: BOX BOUNDS pp pp pp
-2.3407027419979162e+01 2.3407027419979162e+01
-8.7776352824922288e+00 8.7776352824922288e+00
-8.7776352824922288e+00 8.7776352824922288e+00
ITEM: ATOMS id type xs ys zs
2 5 0.0727822 0.452669 0.475099
8 5 0.115793 0.438557 0.499359
12 5 0.161036 0.441993 0.501511
15 5 0.203011 0.454985 0.462675
19 5 0.257574 0.457285 0.467311
22 5 0.30439 0.43543 0.477485
26 5 0.36631 0.438109 0.476395
29 5 0.412415 0.458037 0.469834
33 5 0.475977 0.4558 0.470444
36 5 0.521365 0.443028 0.541868
40 5 0.589583 0.443212 0.538413
43 5 0.634543 0.453669 0.476197
47 5 0.695446 0.454474 0.474795
50 5 0.740227 0.441316 0.465944
54 5 0.797634 0.441742 0.464701
5 7 0.0452222 0.480467 0.558612
57 5 0.840818 0.446826 0.496838
61 5 0.887541 0.464175 0.566487
64 5 0.925999 0.438118 0.478965
1 3 0.0798229 0.494312 0.521481
3 5 0.0719362 0.55191 0.500788
6 3 0.11617 0.492089 0.53741
7 5 0.115529 0.549723 0.5061
9 4 0.140898 0.49872 0.502952
10 3 0.166894 0.494889 0.535551
11 5 0.16025 0.552288 0.510952
65 6 0.925384 0.533398 0.434214
66 7 0.946658 0.531558 0.430323
13 3 0.205883 0.500855 0.508557
14 5 0.203041 0.557787 0.478698
16 4 0.234155 0.491392 0.539401
17 3 0.262293 0.504919 0.50962
18 5 0.259927 0.559807 0.478173
20 3 0.305605 0.490375 0.512431
21 5 0.305875 0.540954 0.471568
23 4 0.336383 0.514724 0.532253
24 3 0.367319 0.490983 0.51199
25 5 0.364567 0.542201 0.471828
27 3 0.412374 0.507766 0.511614
28 5 0.410746 0.563025 0.478207
30 4 0.444757 0.480918 0.523668
31 3 0.476858 0.508152 0.509639
32 5 0.476569 0.561617 0.472003
34 3 0.523159 0.494219 0.503422
35 5 0.523503 0.54999 0.536286
37 4 0.555266 0.509232 0.526612
38 3 0.58734 0.495402 0.501269
39 5 0.587771 0.550603 0.534846
41 3 0.633175 0.507822 0.512062
42 5 0.634471 0.559747 0.473492
44 4 0.664113 0.480412 0.500842
45 3 0.694942 0.507641 0.512745
46 5 0.695795 0.562488 0.475849
48 3 0.738314 0.49746 0.497184
49 5 0.741828 0.545321 0.454722
51 4 0.766764 0.504096 0.528068
52 3 0.794745 0.499211 0.494287
53 5 0.797018 0.545164 0.448785
4 6 0.0659909 0.480051 0.573186
55 3 0.834018 0.505041 0.519779
56 5 0.840022 0.556768 0.483302
58 4 0.85967 0.500257 0.485702
59 3 0.884484 0.508196 0.518404
60 5 0.887974 0.566693 0.54643
62 3 0.918484 0.499292 0.486556
63 5 0.933591 0.520641 0.533817
ITEM: TIMESTEP
90
ITEM: NUMBER OF ATOMS
66
ITEM: BOX BOUNDS pp pp pp
-2.3407027419979162e+01 2.3407027419979162e+01
-8.7776352824922288e+00 8.7776352824922288e+00
-8.7776352824922288e+00 8.7776352824922288e+00
ITEM: ATOMS id type xs ys zs
2 5 0.0851438 0.452765 0.475536
8 5 0.127978 0.438006 0.501121
12 5 0.172281 0.441718 0.501582
15 5 0.213435 0.456987 0.462076
19 5 0.265424 0.460808 0.466041
22 5 0.311429 0.431544 0.478252
26 5 0.370334 0.434622 0.477734
29 5 0.416808 0.460361 0.459914
33 5 0.475626 0.456885 0.460574
36 5 0.520767 0.44009 0.549574
40 5 0.586405 0.44035 0.544952
43 5 0.630885 0.456581 0.468074
47 5 0.68745 0.458681 0.466413
50 5 0.732424 0.438834 0.464856
54 5 0.787332 0.440684 0.463596
5 7 0.0579683 0.481892 0.560244
57 5 0.829868 0.446634 0.498386
61 5 0.875024 0.465177 0.570652
64 5 0.912797 0.436719 0.479114
1 3 0.0924557 0.494885 0.522177
3 5 0.0844465 0.552592 0.501965
6 3 0.128036 0.491853 0.538595
7 5 0.127839 0.549458 0.507475
9 4 0.152253 0.498277 0.503849
10 3 0.177903 0.49432 0.536331
11 5 0.171519 0.552211 0.513031
65 6 0.912819 0.533767 0.436649
66 7 0.933336 0.531426 0.432031
13 3 0.216463 0.501004 0.507541
14 5 0.213729 0.557572 0.480478
16 4 0.243258 0.489626 0.537974
17 3 0.270171 0.506042 0.509381
18 5 0.267772 0.5623 0.480538
20 3 0.312469 0.491454 0.509889
21 5 0.313715 0.537353 0.462644
23 4 0.342543 0.514631 0.534322
24 3 0.371776 0.490776 0.509702
25 5 0.368253 0.53847 0.467054
27 3 0.415576 0.50643 0.507603
28 5 0.414425 0.567735 0.477069
30 4 0.446559 0.485234 0.534754
31 3 0.477745 0.505052 0.504135
32 5 0.477745 0.564911 0.470107
34 3 0.522953 0.490267 0.509874
35 5 0.522246 0.546529 0.543128
37 4 0.553056 0.519755 0.514898
38 3 0.583496 0.490994 0.507762
39 5 0.584488 0.546331 0.540162
41 3 0.628875 0.508838 0.506844
42 5 0.629867 0.564011 0.468659
44 4 0.658533 0.476061 0.516245
45 3 0.687846 0.509375 0.507976
46 5 0.688239 0.567087 0.471247
48 3 0.730077 0.496237 0.496541
49 5 0.734534 0.54357 0.452279
51 4 0.757743 0.505874 0.52872
52 3 0.785045 0.49908 0.493623
53 5 0.786864 0.544762 0.446683
4 6 0.0779143 0.480069 0.574689
55 3 0.823428 0.505014 0.52081
56 5 0.829143 0.557055 0.483512
58 4 0.848131 0.500177 0.487106
59 3 0.872414 0.508152 0.521134
60 5 0.875583 0.567485 0.548431
62 3 0.905841 0.498517 0.489243
63 5 0.921499 0.518041 0.536447
ITEM: TIMESTEP
100
ITEM: NUMBER OF ATOMS
66
ITEM: BOX BOUNDS pp pp pp
-2.3407027419979162e+01 2.3407027419979162e+01
-8.7776352824922288e+00 8.7776352824922288e+00
-8.7776352824922288e+00 8.7776352824922288e+00
ITEM: ATOMS id type xs ys zs
2 5 0.0978305 0.453438 0.47697
8 5 0.140362 0.437168 0.502958
12 5 0.1839 0.441514 0.501318
15 5 0.224211 0.458092 0.459322
19 5 0.273735 0.464301 0.461482
22 5 0.319116 0.430853 0.483933
26 5 0.374953 0.433545 0.481936
29 5 0.421144 0.466232 0.453375
33 5 0.477521 0.459512 0.453219
36 5 0.520846 0.442449 0.553919
40 5 0.582739 0.441988 0.552181
43 5 0.625565 0.4581 0.452389
47 5 0.678175 0.464123 0.451997
50 5 0.724064 0.437203 0.467816
54 5 0.776376 0.440979 0.465144
5 7 0.0703579 0.4828 0.561629
57 5 0.818447 0.446724 0.500367
61 5 0.862251 0.466362 0.573917
64 5 0.899288 0.43629 0.479556
1 3 0.104945 0.494683 0.523454
3 5 0.0972426 0.552771 0.503353
6 3 0.1403 0.491463 0.539915
7 5 0.140344 0.549182 0.508471
9 4 0.163892 0.498072 0.50466
10 3 0.189079 0.493669 0.537466
11 5 0.183112 0.552539 0.515066
65 6 0.899522 0.533407 0.439887
66 7 0.920447 0.531503 0.433665
13 3 0.226784 0.50112 0.507919
14 5 0.224663 0.560186 0.481216
16 4 0.253208 0.488442 0.538973
17 3 0.278925 0.507174 0.508239
18 5 0.276387 0.565847 0.482853
20 3 0.319925 0.490948 0.507547
21 5 0.321608 0.530843 0.456679
23 4 0.348793 0.513135 0.529281
24 3 0.3771 0.490163 0.508099
25 5 0.372581 0.533773 0.462212
27 3 0.4189 0.506451 0.502327
28 5 0.418178 0.56503 0.479853
30 4 0.448786 0.493391 0.527551
31 3 0.479095 0.502695 0.499225
32 5 0.479002 0.560119 0.472911
34 3 0.521961 0.495429 0.519774
35 5 0.521461 0.545281 0.559833
37 4 0.551144 0.504348 0.490466
38 3 0.580554 0.495262 0.519089
39 5 0.58163 0.544907 0.559109
41 3 0.62295 0.503438 0.496557
42 5 0.623973 0.560187 0.468099
44 4 0.652301 0.492083 0.524988
45 3 0.680617 0.508806 0.497485
46 5 0.680776 0.566361 0.470283
48 3 0.721255 0.493282 0.496927
49 5 0.726479 0.538585 0.453111
51 4 0.747781 0.509559 0.526054
52 3 0.774347 0.498582 0.493822
53 5 0.776258 0.542869 0.446864
4 6 0.0910003 0.480547 0.575096
55 3 0.811893 0.50562 0.521654
56 5 0.817675 0.556758 0.484344
58 4 0.836754 0.500404 0.488636
59 3 0.86041 0.508319 0.523976
60 5 0.862985 0.567832 0.550056
62 3 0.893203 0.497804 0.491331
63 5 0.90889 0.515454 0.538197
ITEM: TIMESTEP
110
ITEM: NUMBER OF ATOMS
66
ITEM: BOX BOUNDS pp pp pp
-2.3407027419979162e+01 2.3407027419979162e+01
-8.7776352824922288e+00 8.7776352824922288e+00
-8.7776352824922288e+00 8.7776352824922288e+00
ITEM: ATOMS id type xs ys zs
2 5 0.11423 0.453591 0.478085
8 5 0.156368 0.43607 0.506036
12 5 0.199058 0.442074 0.500653
15 5 0.238191 0.461498 0.456822
19 5 0.285185 0.471509 0.454333
22 5 0.329002 0.426969 0.492446
26 5 0.38183 0.427265 0.486036
29 5 0.426752 0.471941 0.444399
33 5 0.481106 0.459951 0.449463
36 5 0.520235 0.442752 0.555881
40 5 0.578086 0.442244 0.554029
43 5 0.615765 0.45964 0.446836
47 5 0.667761 0.471601 0.437195
50 5 0.712714 0.431615 0.472256
54 5 0.76179 0.439072 0.467998
5 7 0.0870778 0.48348 0.563706
57 5 0.803304 0.446897 0.503539
61 5 0.845627 0.467615 0.578326
64 5 0.881749 0.434754 0.480113
1 3 0.120787 0.494685 0.524739
3 5 0.113729 0.553574 0.504858
6 3 0.155892 0.491114 0.541638
7 5 0.156421 0.548043 0.50925
9 4 0.179508 0.498152 0.505541
10 3 0.204356 0.4934 0.537134
11 5 0.198229 0.553299 0.518096
65 6 0.882573 0.533768 0.442581
66 7 0.90323 0.531626 0.435937
13 3 0.239659 0.501979 0.507236
14 5 0.238821 0.561788 0.48296
16 4 0.265646 0.488356 0.537383
17 3 0.291169 0.507884 0.505507
18 5 0.288324 0.570304 0.486806
20 3 0.330388 0.489413 0.504157
21 5 0.331986 0.520169 0.44852
23 4 0.356404 0.514839 0.527006
24 3 0.383588 0.489167 0.50539
25 5 0.379008 0.525791 0.45265
27 3 0.425034 0.507609 0.497931
28 5 0.423568 0.568724 0.482165
30 4 0.452065 0.489085 0.529211
31 3 0.480281 0.503063 0.498824
32 5 0.479612 0.563438 0.472578
34 3 0.520896 0.497515 0.523158
35 5 0.521319 0.546146 0.567211
37 4 0.548556 0.500598 0.492103
38 3 0.576428 0.498608 0.522196
39 5 0.577289 0.544963 0.566475
41 3 0.615953 0.503405 0.493644
42 5 0.617573 0.562897 0.4673
44 4 0.643855 0.489604 0.52447
45 3 0.670431 0.507554 0.490947
46 5 0.67117 0.570687 0.471734
48 3 0.70998 0.490933 0.494224
49 5 0.715049 0.531297 0.446726
51 4 0.734797 0.512916 0.523976
52 3 0.760474 0.498236 0.493519
53 5 0.762387 0.540301 0.443786
4 6 0.107258 0.480521 0.577228
55 3 0.796907 0.50689 0.523362
56 5 0.802535 0.557632 0.485345
58 4 0.821104 0.501192 0.491092
59 3 0.844078 0.508777 0.527307
60 5 0.846685 0.569187 0.552884
62 3 0.876442 0.497453 0.494022
63 5 0.892725 0.512882 0.541042
ITEM: TIMESTEP
120
ITEM: NUMBER OF ATOMS
66
ITEM: BOX BOUNDS pp pp pp
-2.3407027419979162e+01 2.3407027419979162e+01
-8.7776352824922288e+00 8.7776352824922288e+00
-8.7776352824922288e+00 8.7776352824922288e+00
ITEM: ATOMS id type xs ys zs
2 5 0.126831 0.454605 0.480453
8 5 0.168637 0.434199 0.509082
12 5 0.210709 0.443217 0.499058
15 5 0.248793 0.464047 0.453306
19 5 0.294174 0.478811 0.446712
22 5 0.336299 0.42331 0.500583
26 5 0.387856 0.425026 0.492449
29 5 0.431494 0.478662 0.440664
33 5 0.481252 0.462806 0.447925
36 5 0.51983 0.441437 0.556613
40 5 0.574331 0.440743 0.554278
43 5 0.611644 0.461858 0.443547
47 5 0.65946 0.480145 0.434173
50 5 0.702914 0.427856 0.477124
54 5 0.751205 0.436201 0.468949
5 7 0.0997266 0.483495 0.566142
57 5 0.791759 0.447209 0.505552
61 5 0.832633 0.469371 0.580963
64 5 0.867876 0.435863 0.48129
1 3 0.133992 0.494985 0.525483
3 5 0.126362 0.552514 0.50705
6 3 0.167918 0.490955 0.542174
7 5 0.168725 0.54723 0.508046
9 4 0.19095 0.498215 0.506291
10 3 0.215431 0.493158 0.538183
11 5 0.209949 0.55412 0.521247
65 6 0.869419 0.533554 0.445314
66 7 0.889651 0.532022 0.437108
13 3 0.250675 0.503019 0.505609
14 5 0.249722 0.564494 0.483504
16 4 0.275476 0.487162 0.536282
17 3 0.299724 0.50956 0.502973
18 5 0.298092 0.574059 0.491555
20 3 0.338055 0.487677 0.502837
21 5 0.339737 0.508958 0.441303
23 4 0.363789 0.514751 0.524305
24 3 0.388699 0.487805 0.502667
25 5 0.384509 0.516751 0.445543
27 3 0.427488 0.508701 0.497858
28 5 0.427489 0.570614 0.486847
30 4 0.45415 0.491008 0.526123
31 3 0.481779 0.504266 0.497937
32 5 0.480502 0.562488 0.474197
34 3 0.520584 0.49722 0.524246
35 5 0.520546 0.54574 0.568355
37 4 0.546782 0.50121 0.48901
38 3 0.572537 0.497559 0.52262
39 5 0.573674 0.544988 0.567
41 3 0.610084 0.504537 0.4937
42 5 0.612416 0.562707 0.468707
44 4 0.637769 0.491109 0.520643
45 3 0.66396 0.509805 0.489732
46 5 0.663561 0.572394 0.478863
48 3 0.701237 0.490446 0.491578
49 5 0.706035 0.523371 0.437515
51 4 0.724527 0.512811 0.522358
52 3 0.74958 0.497411 0.492066
53 5 0.751955 0.537351 0.439826
4 6 0.119716 0.480841 0.577078
55 3 0.785571 0.507494 0.524674
56 5 0.790811 0.557795 0.48604
58 4 0.809936 0.501608 0.492676
59 3 0.832131 0.509643 0.530289
60 5 0.833873 0.569227 0.554861
62 3 0.863284 0.496632 0.496969
63 5 0.879727 0.511174 0.541895
ITEM: TIMESTEP
130
ITEM: NUMBER OF ATOMS
66
ITEM: BOX BOUNDS pp pp pp
-2.3407027419979162e+01 2.3407027419979162e+01
-8.7776352824922288e+00 8.7776352824922288e+00
-8.7776352824922288e+00 8.7776352824922288e+00
ITEM: ATOMS id type xs ys zs
2 5 0.139182 0.45366 0.479648