ITEM: TIMESTEP
0
ITEM: NUMBER OF ATOMS
66
ITEM: BOX BOUNDS pp pp pp
-2.3407027419979162e+01 2.3407027419979162e+01
-8.7776352824922288e+00 8.7776352824922288e+00
-8.7776352824922288e+00 8.7776352824922288e+00
ITEM: ATOMS id type xs ys zs
12 5 0.320133 0.454771 0.413057
6 3 0.278703 0.461168 0.487092
7 5 0.26768 0.458166 0.428701
26 5 0.424284 0.389285 0.498754
29 5 0.451455 0.444469 0.392956
33 5 0.496294 0.497813 0.415185
24 3 0.419747 0.451267 0.482421
25 5 0.402595 0.450604 0.435843
27 3 0.447113 0.482517 0.444641
30 4 0.46621 0.477099 0.487052
50 5 0.616018 0.411395 0.428912
48 3 0.626945 0.469835 0.430713
49 5 0.638362 0.47833 0.373617
51 4 0.642563 0.480247 0.481361
52 3 0.659825 0.433224 0.490714
53 5 0.667997 0.398971 0.439534
9 4 0.297659 0.504186 0.494506
10 3 0.312883 0.509932 0.4423
11 5 0.302277 0.54707 0.396695
15 5 0.350941 0.574687 0.413405
13 3 0.340102 0.552532 0.467391
16 4 0.35651 0.509319 0.492519
28 5 0.441275 0.541734 0.421812
31 3 0.486187 0.513833 0.472454
32 5 0.481651 0.578003 0.471533
43 5 0.570406 0.615057 0.487847
47 5 0.591697 0.528833 0.375763
44 4 0.58547 0.510711 0.476307
45 3 0.603036 0.530025 0.433449
46 5 0.613949 0.588442 0.437798
65 6 0.749417 0.562096 0.458081
66 7 0.73208 0.539084 0.439354
56 5 0.686856 0.51733 0.488538
2 5 0.240737 0.428142 0.554018
8 5 0.286636 0.400868 0.500277
1 3 0.254939 0.480098 0.544841
4 6 0.264905 0.497477 0.601616
22 5 0.399602 0.485691 0.62774
20 3 0.392903 0.473795 0.566274
21 5 0.384294 0.412691 0.566123
23 4 0.413649 0.490427 0.533541
36 5 0.510885 0.437666 0.544367
40 5 0.555204 0.471732 0.583698
54 5 0.650011 0.390679 0.532515
57 5 0.699794 0.412243 0.520277
61 5 0.731307 0.467163 0.600003
64 5 0.767141 0.478289 0.502723
55 3 0.686975 0.467357 0.531649
58 4 0.709316 0.485855 0.507122
5 7 0.283396 0.517594 0.587567
3 5 0.241286 0.528951 0.522374
14 5 0.332802 0.605361 0.500631
19 5 0.377413 0.588812 0.54844
17 3 0.367976 0.528538 0.5482
18 5 0.352407 0.524426 0.598361
34 3 0.509251 0.501942 0.534087
35 5 0.500473 0.529272 0.588579
37 4 0.530812 0.526188 0.511615
38 3 0.549335 0.528739 0.555966
39 5 0.544818 0.571111 0.604152
41 3 0.576431 0.558213 0.515729
42 5 0.592821 0.570878 0.562465
59 3 0.725733 0.510592 0.553485
60 5 0.717489 0.563901 0.584233
62 3 0.754041 0.531803 0.51436
63 5 0.766899 0.571471 0.552663
ITEM: TIMESTEP
1000
ITEM: NUMBER OF ATOMS
66
ITEM: BOX BOUNDS pp pp pp
-2.3407027419979162e+01 2.3407027419979162e+01
-8.7776352824922288e+00 8.7776352824922288e+00
-8.7776352824922288e+00 8.7776352824922288e+00
ITEM: ATOMS id type xs ys zs
12 5 0.377589 0.529516 0.38913
6 3 0.360818 0.400816 0.418263
7 5 0.339392 0.372799 0.403804
26 5 0.450332 0.644701 0.645142
29 5 0.485009 0.581239 0.540152
33 5 0.469033 0.383764 0.555442
24 3 0.446104 0.596807 0.602615
25 5 0.430378 0.558515 0.634583
27 3 0.47347 0.551718 0.589701
30 4 0.46771 0.483419 0.594641
50 5 0.574492 0.452206 0.313756
48 3 0.584175 0.497005 0.353489
49 5 0.586602 0.551947 0.319725
51 4 0.608009 0.483605 0.36883
52 3 0.615846 0.416532 0.376112
53 5 0.635968 0.412959 0.339332
9 4 0.351702 0.456832 0.447625
10 3 0.358674 0.517049 0.427969
11 5 0.338566 0.53651 0.395309
15 5 0.33855 0.59081 0.513827
13 3 0.360023 0.561348 0.503526
16 4 0.379676 0.59922 0.49642
28 5 0.488558 0.560466 0.641658
31 3 0.480733 0.441423 0.554575
32 5 0.479241 0.460708 0.49346
43 5 0.541011 0.602368 0.525068
47 5 0.546403 0.478135 0.42106
44 4 0.572923 0.555116 0.470066
45 3 0.562416 0.528141 0.415101
46 5 0.551602 0.582629 0.394488
65 6 0.681756 0.524637 0.542194
66 7 0.685902 0.482665 0.509418
56 5 0.63315 0.348112 0.465819
2 5 0.398636 0.337758 0.464862
8 5 0.375367 0.39958 0.366497
1 3 0.375523 0.348193 0.476925
4 6 0.372718 0.377402 0.533622
22 5 0.420485 0.663789 0.468348
20 3 0.420688 0.652416 0.532369
21 5 0.425717 0.711262 0.554548
23 4 0.43571 0.601745 0.542735
36 5 0.51892 0.367459 0.548697
40 5 0.566706 0.450156 0.58126
54 5 0.601918 0.365847 0.357068
57 5 0.602775 0.393996 0.494037
61 5 0.617971 0.486556 0.562238
64 5 0.660431 0.458853 0.615467
55 3 0.623259 0.409084 0.46128
58 4 0.641229 0.457492 0.474123
5 7 0.37335 0.433754 0.525239
3 5 0.364873 0.290544 0.478211
14 5 0.364882 0.523835 0.552055
19 5 0.377614 0.693145 0.540031
17 3 0.388402 0.636333 0.548362
18 5 0.385618 0.616882 0.610264
34 3 0.512913 0.423468 0.576806
35 5 0.513129 0.410667 0.640451
37 4 0.527932 0.46258 0.542512
38 3 0.546886 0.489614 0.575149
39 5 0.543681 0.514571 0.63585
41 3 0.558818 0.557389 0.524891
42 5 0.578205 0.578211 0.558121
59 3 0.63625 0.500648 0.522063
60 5 0.630034 0.562251 0.499984
62 3 0.661531 0.514118 0.578468
63 5 0.661529 0.565891 0.616436
ITEM: TIMESTEP
2000
ITEM: NUMBER OF ATOMS
66
ITEM: BOX BOUNDS pp pp pp
-2.3407027419979162e+01 2.3407027419979162e+01
-8.7776352824922288e+00 8.7776352824922288e+00
-8.7776352824922288e+00 8.7776352824922288e+00
ITEM: ATOMS id type xs ys zs
6 3 0.441504 0.462081 0.44846
7 5 0.442118 0.528722 0.454013
9 4 0.426651 0.434538 0.401312
32 5 0.463151 0.613594 0.558358
2 5 0.484837 0.437268 0.492257
8 5 0.435096 0.437831 0.508347
1 3 0.472503 0.435572 0.436692
3 5 0.485843 0.469952 0.392534
50 5 0.545926 0.446871 0.438683
48 3 0.567654 0.477448 0.441012
51 4 0.582034 0.42891 0.422143
52 3 0.584039 0.419891 0.356203
53 5 0.59207 0.470224 0.320412
47 5 0.588316 0.561537 0.527089
56 5 0.607461 0.351631 0.283533
54 5 0.562505 0.399895 0.334885
57 5 0.600963 0.30318 0.379789
55 3 0.608311 0.358053 0.348567
58 4 0.629303 0.39239 0.35473
66 7 0.627573 0.444468 0.457507
12 5 0.405536 0.528854 0.383928
10 3 0.403599 0.465204 0.39636
11 5 0.394101 0.443309 0.341688
16 4 0.382398 0.492137 0.516059
22 5 0.409347 0.615383 0.491772
49 5 0.56579 0.533718 0.408211
44 4 0.551825 0.513147 0.552901
45 3 0.574257 0.507797 0.524738
46 5 0.580749 0.460465 0.564747
60 5 0.642646 0.308053 0.418095
33 5 0.439626 0.561083 0.614946
30 4 0.450659 0.648388 0.661985
31 3 0.458619 0.600904 0.619355
4 6 0.471797 0.376123 0.410694
5 7 0.452356 0.375161 0.387482
36 5 0.473645 0.489946 0.637974
40 5 0.5207 0.457264 0.636173
61 5 0.665636 0.350523 0.3441
64 5 0.675845 0.463958 0.405814
34 3 0.482154 0.54857 0.654859
35 5 0.484146 0.560624 0.719712
37 4 0.503592 0.554584 0.620274
38 3 0.522931 0.521865 0.648355
39 5 0.527966 0.527151 0.712096
59 3 0.648307 0.364504 0.388547
26 5 0.402081 0.736985 0.564528
29 5 0.445721 0.74566 0.606763
24 3 0.405227 0.684368 0.602955
25 5 0.387415 0.688795 0.647942
27 3 0.435307 0.697997 0.640605
15 5 0.360098 0.438429 0.435188
13 3 0.381342 0.455975 0.462967
28 5 0.427169 0.724814 0.696763
20 3 0.388904 0.619925 0.526904
21 5 0.376352 0.670185 0.499591
23 4 0.399412 0.622543 0.586616
14 5 0.387666 0.40249 0.494326
19 5 0.355664 0.563183 0.463989
17 3 0.36938 0.547654 0.517002
18 5 0.356739 0.545103 0.570795
43 5 0.551759 0.610732 0.608454
41 3 0.550916 0.545398 0.612105
42 5 0.569156 0.531944 0.653579
62 3 0.66238 0.423961 0.439642
63 5 0.678758 0.394458 0.47758
65 6 0.646146 0.452903 0.480232
ITEM: TIMESTEP
3000
ITEM: NUMBER OF ATOMS
66
ITEM: BOX BOUNDS pp pp pp
-2.3407027419979162e+01 2.3407027419979162e+01
-8.7776352824922288e+00 8.7776352824922288e+00
-8.7776352824922288e+00 8.7776352824922288e+00
ITEM: ATOMS id type xs ys zs
6 3 0.425981 0.512863 0.312523
9 4 0.411888 0.465733 0.337225
2 5 0.471912 0.505239 0.325734
1 3 0.455436 0.488268 0.28203
3 5 0.458347 0.52271 0.227431
10 3 0.390735 0.481505 0.367656
11 5 0.377032 0.474729 0.314883
4 6 0.456752 0.428554 0.261094
5 7 0.44187 0.392638 0.280263
15 5 0.365732 0.394428 0.428997
13 3 0.388058 0.420209 0.430181
50 5 0.590655 0.601129 0.498552
48 3 0.593318 0.554738 0.543374
51 4 0.582724 0.493651 0.53867
52 3 0.573315 0.477559 0.479036
53 5 0.570476 0.521792 0.432533
56 5 0.574492 0.369138 0.420149
54 5 0.551128 0.459779 0.497726
57 5 0.595804 0.375045 0.513349
55 3 0.587955 0.404471 0.458579
58 4 0.606398 0.415908 0.415128
66 7 0.60158 0.306446 0.370996
60 5 0.645558 0.424582 0.429188
61 5 0.633111 0.333644 0.46813
59 3 0.628126 0.380303 0.419973
62 3 0.634862 0.340573 0.346516
65 6 0.618164 0.294045 0.342495
64 5 0.656238 0.313902 0.345753
63 5 0.631449 0.384181 0.295965
7 5 0.414538 0.552724 0.269382
12 5 0.391228 0.543565 0.392591
22 5 0.4038 0.499923 0.64634
19 5 0.36822 0.499823 0.533934
49 5 0.61748 0.543214 0.54025
8 5 0.43491 0.556249 0.358239
16 4 0.401249 0.438148 0.485135
36 5 0.516641 0.541709 0.588932
14 5 0.400303 0.364424 0.414607
46 5 0.604727 0.568387 0.664439
40 5 0.520521 0.485324 0.711621
32 5 0.494815 0.67801 0.597828
33 5 0.484954 0.604272 0.529205
30 4 0.458689 0.609009 0.608637
31 3 0.483001 0.621645 0.591174
34 3 0.500719 0.563306 0.635444
35 5 0.48629 0.508358 0.64232
26 5 0.397859 0.64928 0.550995
29 5 0.446973 0.67646 0.53334
24 3 0.411899 0.618709 0.593661
25 5 0.40424 0.62306 0.655594
27 3 0.442225 0.657701 0.595345
28 5 0.442452 0.701247 0.643204
20 3 0.409079 0.509176 0.582975
21 5 0.430951 0.478447 0.574919
23 4 0.413179 0.564658 0.551829
17 3 0.387856 0.459129 0.537611
18 5 0.381748 0.410123 0.574162
47 5 0.59115 0.649709 0.616137
44 4 0.561923 0.571621 0.643255
45 3 0.5866 0.58548 0.624443
37 4 0.510488 0.59032 0.687963
38 3 0.524956 0.548218 0.719077
39 5 0.518986 0.566079 0.778005
43 5 0.55843 0.627085 0.737394
41 3 0.556648 0.568784 0.708928
42 5 0.571641 0.524299 0.736917
ITEM: TIMESTEP
4000
ITEM: NUMBER OF ATOMS
66
ITEM: BOX BOUNDS pp pp pp
-2.3407027419979162e+01 2.3407027419979162e+01
-8.7776352824922288e+00 8.7776352824922288e+00
-8.7776352824922288e+00 8.7776352824922288e+00
ITEM: ATOMS id type xs ys zs
9 4 0.384121 0.497886 0.357967
2 5 0.447941 0.558298 0.347166
1 3 0.425672 0.554176 0.32126
10 3 0.363308 0.504414 0.391615
11 5 0.347309 0.510401 0.344768
4 6 0.424959 0.51363 0.274914
5 7 0.405626 0.493916 0.27123
15 5 0.332299 0.45037 0.469443
13 3 0.355136 0.440957 0.448132
16 4 0.372267 0.422626 0.497242
14 5 0.354843 0.389227 0.408202
52 3 0.635072 0.552696 0.469778
56 5 0.66371 0.457152 0.447392
54 5 0.633913 0.596314 0.41952
55 3 0.640653 0.472321 0.433382
58 4 0.623899 0.428158 0.444288
66 7 0.576624 0.410827 0.497678
60 5 0.632129 0.329434 0.446272
61 5 0.649489 0.381307 0.523483
59 3 0.628848 0.378759 0.488513
62 3 0.602854 0.358989 0.540654
65 6 0.582378 0.359762 0.507156
64 5 0.603042 0.40282 0.58648
63 5 0.608692 0.305216 0.571633
6 3 0.404736 0.525048 0.382983
3 5 0.421151 0.610369 0.293984
7 5 0.404852 0.570489 0.430359
12 5 0.358695 0.562833 0.420938
8 5 0.418548 0.476678 0.409012
53 5 0.658264 0.561488 0.491791
19 5 0.36909 0.521724 0.546974
21 5 0.410057 0.386155 0.596782
17 3 0.373118 0.457139 0.551045
18 5 0.353864 0.432559 0.585006
51 4 0.614278 0.562786 0.50543
57 5 0.640259 0.485178 0.368606
40 5 0.53927 0.480041 0.507606
22 5 0.395378 0.466877 0.657758
32 5 0.487638 0.664811 0.570049
33 5 0.471573 0.654095 0.475511
30 4 0.464385 0.574522 0.532648
31 3 0.48212 0.621654 0.523851
35 5 0.507328 0.541823 0.452903
26 5 0.444142 0.465998 0.662372
29 5 0.443098 0.611934 0.617948
24 3 0.441293 0.487733 0.600555
25 5 0.452972 0.444123 0.561614
27 3 0.458201 0.563427 0.596756
28 5 0.474114 0.554018 0.644982
20 3 0.402408 0.447642 0.596863
23 4 0.41851 0.489791 0.575162
50 5 0.626452 0.638114 0.578108
48 3 0.618183 0.575388 0.573017
49 5 0.633309 0.534241 0.603601
36 5 0.524513 0.632598 0.470212
46 5 0.596843 0.587685 0.677448
34 3 0.5115 0.586792 0.500349
47 5 0.574086 0.613099 0.59267
44 4 0.578951 0.509381 0.607993
45 3 0.590361 0.570168 0.617013
37 4 0.526493 0.575955 0.55202
38 3 0.531621 0.509642 0.561712
39 5 0.51221 0.475169 0.573094
43 5 0.547645 0.533167 0.680622
41 3 0.555104 0.502383 0.627964
42 5 0.552979 0.435675 0.637174
ITEM: TIMESTEP
5000
ITEM: NUMBER OF ATOMS
66
ITEM: BOX BOUNDS pp pp pp
-2.3407027419979162e+01 2.3407027419979162e+01
-8.7776352824922288e+00 8.7776352824922288e+00
-8.7776352824922288e+00 8.7776352824922288e+00
ITEM: ATOMS id type xs ys zs
11 5 0.340812 0.527219 0.431931
15 5 0.336949 0.458156 0.543058
13 3 0.357892 0.445246 0.511923
16 4 0.377789 0.427176 0.547987
14 5 0.351712 0.397954 0.471628
8 5 0.412096 0.496581 0.437296
55 3 0.648232 0.456383 0.591767
58 4 0.653347 0.417638 0.535141
60 5 0.660488 0.507992 0.471045
59 3 0.665111 0.444237 0.486244
57 5 0.651793 0.520097 0.585487
56 5 0.662976 0.431312 0.636616
9 4 0.371726 0.506222 0.402788
2 5 0.40224 0.438719 0.314652
1 3 0.403941 0.504683 0.319397
10 3 0.361182 0.518067 0.463361
4 6 0.387739 0.527987 0.273343
5 7 0.370728 0.515048 0.298336
6 3 0.395399 0.525778 0.399548
3 5 0.426257 0.521238 0.302238
7 5 0.398009 0.589862 0.407084
12 5 0.364046 0.573642 0.496144
33 5 0.460212 0.697344 0.453647
52 3 0.618356 0.44002 0.622318
54 5 0.618126 0.450017 0.687788
35 5 0.495826 0.645114 0.384422
36 5 0.517466 0.697138 0.443186
34 3 0.502628 0.646527 0.44754
21 5 0.423158 0.416973 0.565866
17 3 0.382011 0.458123 0.605597
18 5 0.372403 0.421556 0.655812
22 5 0.421297 0.436673 0.662375
26 5 0.45546 0.515105 0.657385
24 3 0.447871 0.523729 0.59539
25 5 0.461197 0.478818 0.56351
20 3 0.414314 0.461047 0.605987
23 4 0.423028 0.519658 0.591893
66 7 0.659278 0.338181 0.479826
61 5 0.688421 0.433534 0.496998
62 3 0.658715 0.398835 0.414067
65 6 0.659844 0.333322 0.425914
64 5 0.676061 0.416827 0.369612
63 5 0.636099 0.413687 0.39897
40 5 0.533662 0.560574 0.397309
39 5 0.499801 0.515111 0.425206
42 5 0.537953 0.42081 0.45814
19 5 0.373639 0.518248 0.613991
32 5 0.482241 0.714218 0.533401
30 4 0.464209 0.609082 0.506163
31 3 0.476111 0.666898 0.492544
29 5 0.441902 0.646344 0.592999
27 3 0.458345 0.603031 0.571817
28 5 0.480386 0.609608 0.59846
53 5 0.612061 0.378187 0.607246
51 4 0.60333 0.483332 0.594007
50 5 0.581822 0.515512 0.6711
48 3 0.580945 0.482873 0.613067
49 5 0.566624 0.430903 0.619468
46 5 0.544526 0.54852 0.59011
47 5 0.573025 0.588005 0.540475
44 4 0.559428 0.498554 0.49706
45 3 0.563947 0.527826 0.553295
37 4 0.516123 0.598737 0.478982
38 3 0.519872 0.540755 0.447584
43 5 0.520779 0.467998 0.539262
41 3 0.53549 0.480072 0.489264
ITEM: TIMESTEP
6000
ITEM: NUMBER OF ATOMS
66
ITEM: BOX BOUNDS pp pp pp
-2.3407027419979162e+01 2.3407027419979162e+01
-8.7776352824922288e+00 8.7776352824922288e+00
-8.7776352824922288e+00 8.7776352824922288e+00
ITEM: ATOMS id type xs ys zs
14 5 0.378185 0.487 0.562577
8 5 0.388196 0.453634 0.352962
2 5 0.34391 0.381992 0.378689
59 3 0.643763 0.44417 0.635556
66 7 0.649879 0.469223 0.505302
62 3 0.669945 0.460567 0.590252
63 5 0.68184 0.506718 0.623253
42 5 0.561385 0.499265 0.345852
41 3 0.539307 0.507303 0.372925
61 5 0.649574 0.416423 0.692357
65 6 0.667248 0.486186 0.529361
64 5 0.683603 0.405979 0.581757
11 5 0.373503 0.59752 0.46511
9 4 0.366485 0.505456 0.42851
1 3 0.342038 0.438986 0.345318
10 3 0.384405 0.540143 0.450476
4 6 0.322176 0.465408 0.365731
5 7 0.327619 0.503208 0.400475
6 3 0.368241 0.490538 0.362392
3 5 0.339465 0.419316 0.284354
7 5 0.369126 0.53843 0.318937
33 5 0.475663 0.681956 0.460703
31 3 0.497908 0.673806 0.490496
60 5 0.635089 0.505146 0.649489
35 5 0.523486 0.712375 0.393668
36 5 0.540966 0.643497 0.457898
34 3 0.520074 0.657972 0.426026
40 5 0.538756 0.620178 0.307638
39 5 0.507223 0.555688 0.304834
37 4 0.51016 0.61237 0.388161
38 3 0.523918 0.581957 0.343298
15 5 0.410685 0.550601 0.552454
13 3 0.39723 0.501867 0.522995
16 4 0.41505 0.458498 0.517206
21 5 0.465836 0.468888 0.52464
17 3 0.424418 0.437876 0.576754
18 5 0.426903 0.377411 0.549109
22 5 0.466537 0.430567 0.623666
25 5 0.49977 0.51761 0.62635
20 3 0.455696 0.470989 0.583475
55 3 0.611728 0.367563 0.620906
58 4 0.627634 0.4136 0.595033
56 5 0.619927 0.306938 0.614379
52 3 0.580877 0.368143 0.586192
54 5 0.566302 0.347094 0.633087
53 5 0.583585 0.312421 0.549749
51 4 0.572812 0.417531 0.551378
50 5 0.532842 0.376165 0.54503
48 3 0.551402 0.406218 0.514783
49 5 0.557023 0.367301 0.465635
44 4 0.552955 0.505544 0.431116
43 5 0.527121 0.452248 0.355232
12 5 0.406031 0.557716 0.420787
26 5 0.473695 0.570737 0.687803
24 3 0.480061 0.554212 0.626004
23 4 0.457607 0.533305 0.601095
19 5 0.412358 0.432519 0.632261
32 5 0.502506 0.733176 0.511245
30 4 0.500986 0.626845 0.538507
29 5 0.466826 0.67003 0.58669
27 3 0.486835 0.634805 0.591373
28 5 0.502524 0.657821 0.634463
57 5 0.607612 0.369979 0.685328
46 5 0.517467 0.463516 0.467827
47 5 0.539788 0.529684 0.522252
45 3 0.54029 0.480218 0.478611
ITEM: TIMESTEP
7000
ITEM: NUMBER OF ATOMS
66
ITEM: BOX BOUNDS pp pp pp
-2.3407027419979162e+01 2.3407027419979162e+01
-8.7776352824922288e+00 8.7776352824922288e+00
-8.7776352824922288e+00 8.7776352824922288e+00
ITEM: ATOMS id type xs ys zs
4 6 0.36284 0.379536 0.571316
5 7 0.376135 0.420206 0.567402
8 5 0.359969 0.426417 0.394867
2 5 0.37642 0.327042 0.482598
9 4 0.376068 0.474108 0.486961
1 3 0.358995 0.364324 0.505892
6 3 0.357682 0.436937 0.461592
3 5 0.337538 0.336271 0.503799
42 5 0.588652 0.510874 0.488957
49 5 0.586516 0.373884 0.368617
44 4 0.555627 0.48595 0.447184
43 5 0.58732 0.550696 0.393106
46 5 0.56118 0.462427 0.336405
45 3 0.5557 0.444247 0.398061
11 5 0.367107 0.568852 0.506236
10 3 0.378714 0.53562 0.459581
7 5 0.334292 0.453905 0.469211
33 5 0.501909 0.701338 0.357133
12 5 0.369322 0.548879 0.400607
41 3 0.572958 0.530197 0.444753
31 3 0.509183 0.715074 0.419386
35 5 0.552103 0.719741 0.382327
36 5 0.547802 0.730804 0.483996
34 3 0.540381 0.693047 0.432372
40 5 0.541789 0.589383 0.514107
39 5 0.575543 0.639423 0.504352
37 4 0.547523 0.631858 0.419425
38 3 0.558514 0.607177 0.46896
14 5 0.415937 0.587601 0.524033
16 4 0.428235 0.513795 0.4451
21 5 0.486943 0.529263 0.463763
17 3 0.443749 0.486087 0.48871
18 5 0.452909 0.433755 0.458542
22 5 0.480613 0.488735 0.557163
20 3 0.470409 0.52941 0.513489
19 5 0.434484 0.460423 0.54137
59 3 0.597455 0.399813 0.662654
66 7 0.560853 0.439363 0.593104
61 5 0.620894 0.411513 0.684904
65 6 0.555902 0.464205 0.64116
60 5 0.589379 0.357531 0.704385
55 3 0.598625 0.318813 0.577546
58 4 0.599176 0.385331 0.598759
56 5 0.620808 0.295673 0.592002
52 3 0.589686 0.312975 0.491042
54 5 0.587124 0.250153 0.478076
53 5 0.611277 0.333478 0.466355
51 4 0.569996 0.35175 0.476303
50 5 0.550396 0.331757 0.389991
48 3 0.568547 0.366814 0.411445
57 5 0.584541 0.275775 0.608696
62 3 0.577904 0.472723 0.671631
64 5 0.590857 0.515829 0.638137
15 5 0.412874 0.599204 0.420412
13 3 0.411734 0.556789 0.469495
26 5 0.475231 0.652463 0.622394
24 3 0.484131 0.625941 0.564523
23 4 0.465719 0.587174 0.541708
29 5 0.467786 0.729576 0.508769
27 3 0.488776 0.697304 0.514079
25 5 0.505234 0.599831 0.583609
32 5 0.50994 0.7792 0.428829
30 4 0.493215 0.681213 0.451576
28 5 0.503958 0.73495 0.547467
47 5 0.531314 0.437319 0.394132
63 5 0.575617 0.489634 0.734477
ITEM: TIMESTEP
8000
ITEM: NUMBER OF ATOMS
66
ITEM: BOX BOUNDS pp pp pp
-2.3407027419979162e+01 2.3407027419979162e+01
-8.7776352824922288e+00 8.7776352824922288e+00
-8.7776352824922288e+00 8.7776352824922288e+00
ITEM: ATOMS id type xs ys zs
8 5 0.412279 0.312609 0.481679
9 4 0.406539 0.408997 0.524072
6 3 0.395023 0.350734 0.508946
7 5 0.375862 0.357488 0.466865
17 3 0.452265 0.536462 0.590886
18 5 0.463666 0.487423 0.621395
49 5 0.585781 0.409333 0.341478
44 4 0.582666 0.50926 0.483889
46 5 0.609656 0.442073 0.470118
45 3 0.594503 0.480349 0.436391
52 3 0.54692 0.343951 0.417119
54 5 0.527803 0.365468 0.385037
53 5 0.553313 0.292598 0.383324
51 4 0.567851 0.380465 0.434597
50 5 0.556359 0.467128 0.374346
48 3 0.574782 0.431932 0.394926
47 5 0.609664 0.515308 0.396484
10 3 0.40823 0.454658 0.478746
12 5 0.421781 0.437801 0.426923
16 4 0.444573 0.510109 0.532151
21 5 0.492198 0.572289 0.547217
15 5 0.428182 0.568782 0.467894
13 3 0.421493 0.524906 0.511954
29 5 0.471063 0.730389 0.417766
30 4 0.508599 0.675701 0.442731
42 5 0.583498 0.564091 0.558424
43 5 0.614786 0.590604 0.501056
33 5 0.51026 0.618592 0.358523
41 3 0.590734 0.57233 0.497375
31 3 0.519682 0.675629 0.380664
35 5 0.556625 0.659752 0.313553
36 5 0.560729 0.741484 0.390091
34 3 0.553295 0.680014 0.374303
39 5 0.583974 0.690986 0.483599
37 4 0.567357 0.629274 0.400244
38 3 0.57276 0.636531 0.465062
32 5 0.510436 0.713948 0.33362
4 6 0.372856 0.344858 0.610568
5 7 0.379705 0.394491 0.606505
2 5 0.403829 0.285729 0.616295
1 3 0.386085 0.303434 0.578615
3 5 0.374668 0.254345 0.555008
22 5 0.479742 0.627906 0.635544
19 5 0.436357 0.560568 0.633063
59 3 0.524711 0.353382 0.596691
66 7 0.543437 0.440289 0.556653
61 5 0.545008 0.319196 0.617076
65 6 0.541274 0.465189 0.605477
60 5 0.504087 0.334768 0.623501
55 3 0.531603 0.313031 0.492728
58 4 0.521079 0.360017 0.53104
56 5 0.551306 0.277448 0.511795
57 5 0.515172 0.267963 0.478185
62 3 0.527454 0.430205 0.640339
63 5 0.506324 0.46068 0.647843
11 5 0.38874 0.476898 0.448646
14 5 0.404696 0.55686 0.54371
20 3 0.473624 0.60118 0.576631
26 5 0.46439 0.752573 0.555916
24 3 0.479685 0.707063 0.535618
23 4 0.463424 0.651505 0.539358
27 3 0.491336 0.723435 0.455898
28 5 0.500489 0.782585 0.45043
40 5 0.550188 0.635322 0.492117
64 5 0.537332 0.415896 0.696717
25 5 0.497168 0.712701 0.580821
ITEM: TIMESTEP
9000
ITEM: NUMBER OF ATOMS
66
ITEM: BOX BOUNDS pp pp pp
-2.3407027419979162e+01 2.3407027419979162e+01
-8.7776352824922288e+00 8.7776352824922288e+00
-8.7776352824922288e+00 8.7776352824922288e+00
ITEM: ATOMS id type xs ys zs
8 5 0.433046 0.383069 0.609843
7 5 0.428438 0.30217 0.539427
10 3 0.444734 0.43984 0.50007
12 5 0.464352 0.422735 0.536303
11 5 0.446869 0.421512 0.438026
49 5 0.562442 0.414036 0.324318
46 5 0.591717 0.43617 0.448557
45 3 0.575133 0.474334 0.418327
52 3 0.535035 0.330576 0.433372
54 5 0.51501 0.36057 0.450186
53 5 0.530854 0.297967 0.379933
51 4 0.554267 0.366141 0.431845
50 5 0.532857 0.444313 0.372069
48 3 0.553693 0.416372 0.387098
55 3 0.540249 0.269162 0.501519
57 5 0.521864 0.226995 0.493913
15 5 0.463802 0.552368 0.503767
29 5 0.46901 0.716165 0.383792
27 3 0.483625 0.741824 0.433415
28 5 0.487816 0.802877 0.413794
44 4 0.563836 0.498271 0.472193
47 5 0.58534 0.512543 0.372304
30 4 0.50619 0.720252 0.449044
43 5 0.598209 0.553274 0.514428
33 5 0.510752 0.646377 0.37663
31 3 0.519366 0.702725 0.392579
35 5 0.566491 0.707793 0.359084
36 5 0.557708 0.74466 0.447187
34 3 0.551957 0.695089 0.410305
39 5 0.573019 0.663664 0.535595
37 4 0.560295 0.63265 0.428065
38 3 0.561008 0.622176 0.494727
32 5 0.515516 0.738839 0.337813
9 4 0.422439 0.403096 0.504705
6 3 0.420414 0.360789 0.559757
18 5 0.406318 0.599965 0.606708
4 6 0.37303 0.389734 0.546718
5 7 0.385122 0.414851 0.513296
2 5 0.39109 0.405252 0.64248
1 3 0.388872 0.36731 0.58915
3 5 0.38055 0.311022 0.610342
59 3 0.548331 0.274885 0.611418
66 7 0.575232 0.369997 0.556237
61 5 0.553496 0.211514 0.613966
65 6 0.586433 0.352472 0.598564
60 5 0.528539 0.27615 0.653156
58 4 0.539218 0.305607 0.556518
56 5 0.562588 0.244076 0.488893
62 3 0.572131 0.330186 0.647413
63 5 0.559695 0.379887 0.671986
64 5 0.585425 0.29566 0.689069
17 3 0.42023 0.609273 0.552704
16 4 0.433572 0.552179 0.557146
21 5 0.446518 0.694054 0.616944
13 3 0.440658 0.526696 0.49723
22 5 0.417713 0.734092 0.560097
19 5 0.400975 0.61474 0.509538
14 5 0.427668 0.544417 0.44564
20 3 0.435143 0.688694 0.55837
26 5 0.450088 0.79683 0.485484
24 3 0.463188 0.746185 0.498259
23 4 0.449753 0.693801 0.503575
25 5 0.474307 0.757706 0.554109
42 5 0.566771 0.528441 0.566561
41 3 0.573792 0.547155 0.507373
40 5 0.538084 0.617103 0.51546
ITEM: TIMESTEP
10000
ITEM: NUMBER OF ATOMS
66
ITEM: BOX BOUNDS pp pp pp
-2.3407027419979162e+01 2.3407027419979162e+01
-8.7776352824922288e+00 8.7776352824922288e+00
-8.7776352824922288e+00 8.7776352824922288e+00
ITEM: ATOMS id type xs ys zs
10 3 0.44029 0.529979 0.602577
11 5 0.459429 0.537192 0.641486
49 5 0.486006 0.325433 0.492149
46 5 0.521656 0.383592 0.387409
45 3 0.509856 0.4179 0.433431
52 3 0.524096 0.278082 0.550766
54 5 0.523557 0.310709 0.607828
53 5 0.505605 0.235471 0.550115
51 4 0.525128 0.319747 0.501493
50 5 0.503356 0.400309 0.551445
48 3 0.50607 0.361457 0.500988
55 3 0.55373 0.242764 0.542819
56 5 0.55617 0.212474 0.484269
15 5 0.459689 0.627392 0.545542
29 5 0.499612 0.773576 0.386971
27 3 0.490196 0.783616 0.449651
28 5 0.492325 0.845004 0.470454
19 5 0.451076 0.567837 0.378389
14 5 0.464075 0.531574 0.498342
26 5 0.451568 0.805925 0.3802
44 4 0.517773 0.475796 0.452016
47 5 0.487342 0.433734 0.412352
30 4 0.498636 0.746361 0.49964
33 5 0.536571 0.747333 0.452503
31 3 0.523424 0.743013 0.503979
35 5 0.548579 0.675814 0.585634
36 5 0.512464 0.652417 0.581692
34 3 0.530808 0.664686 0.541518
37 4 0.531031 0.61711 0.493861
38 3 0.548694 0.56533 0.497288
32 5 0.531338 0.785093 0.54971
8 5 0.399054 0.473199 0.561123
7 5 0.409311 0.395882 0.623649
12 5 0.420151 0.561628 0.621965
9 4 0.43911 0.462356 0.597573
6 3 0.417305 0.433709 0.57441
4 6 0.431945 0.401875 0.460957
5 7 0.432818 0.453463 0.474825
2 5 0.40205 0.346186 0.492858
1 3 0.422398 0.374901 0.512363
3 5 0.438047 0.334172 0.540621
57 5 0.555086 0.19219 0.58799
59 3 0.593983 0.265159 0.56114
66 7 0.589946 0.376649 0.536615
61 5 0.602405 0.206039 0.541621
65 6 0.609899 0.382259 0.532288
60 5 0.596817 0.270458 0.628016
58 4 0.570746 0.28862 0.559213
62 3 0.614908 0.321907 0.523137
63 5 0.637948 0.313051 0.548425
64 5 0.613766 0.311738 0.458688
18 5 0.414715 0.571273 0.394046
17 3 0.434891 0.592683 0.42138
16 4 0.429408 0.569478 0.48026
21 5 0.41521 0.703757 0.43978
13 3 0.448299 0.572917 0.526392
22 5 0.432743 0.690348 0.353778
20 3 0.43596 0.679363 0.417272
24 3 0.4584 0.772911 0.433739
23 4 0.457645 0.707643 0.424789
25 5 0.44641 0.79474 0.48615
43 5 0.555526 0.487809 0.404053
39 5 0.569346 0.591549 0.473101
42 5 0.554989 0.443101 0.493581
41 3 0.542717 0.486199 0.458693
40 5 0.550511 0.545899 0.557611
ITEM: TIMESTEP
11000
ITEM: NUMBER OF ATOMS
66
ITEM: BOX BOUNDS pp pp pp
-2.3407027419979162e+01 2.3407027419979162e+01
-8.7776352824922288e+00 8.7776352824922288e+00
-8.7776352824922288e+00 8.7776352824922288e+00
ITEM: ATOMS id type xs ys zs
49 5 0.512589 0.259155 0.539734
47 5 0.487835 0.368154 0.576791
4 6 0.393113 0.412398 0.561894
5 7 0.410829 0.407867 0.536868
46 5 0.499432 0.38285 0.478436
45 3 0.507754 0.381274 0.539397
51 4 0.545476 0.312524 0.531841
44 4 0.514232 0.439228 0.566536
64 5 0.623372 0.395378 0.41409
43 5 0.527485 0.488041 0.46567
42 5 0.553539 0.455537 0.538148
41 3 0.530286 0.479444 0.530118
27 3 0.482486 0.759449 0.473282
28 5 0.47969 0.814265 0.506806
19 5 0.459217 0.588562 0.301738
26 5 0.44287 0.796792 0.432988
18 5 0.422606 0.574043 0.308631
17 3 0.440484 0.602605 0.339313
16 4 0.43661 0.585741 0.40367
21 5 0.414812 0.704206 0.364864
22 5 0.439864 0.716765 0.282347
20 3 0.437022 0.693765 0.3399
24 3 0.454983 0.738475 0.43479
23 4 0.456206 0.727508 0.370923
25 5 0.444642 0.696593 0.474628
29 5 0.495776 0.778176 0.423175
30 4 0.490546 0.705768 0.507247
33 5 0.527761 0.695499 0.497443
31 3 0.511543 0.711496 0.54492
37 4 0.511056 0.587175 0.570988
39 5 0.552526 0.589528 0.543177
8 5 0.402143 0.557598 0.504008
7 5 0.413361 0.570317 0.600239
9 4 0.43114 0.495663 0.532256
6 3 0.411857 0.52528 0.554584
2 5 0.369952 0.492818 0.581161
1 3 0.392024 0.469081 0.591347
3 5 0.395479 0.462585 0.657683
52 3 0.563048 0.275831 0.562199
54 5 0.574708 0.331419 0.577672
53 5 0.560659 0.240144 0.616933
50 5 0.521711 0.313129 0.629087
48 3 0.524151 0.311741 0.563086
55 3 0.579 0.235056 0.49632
56 5 0.56197 0.206814 0.45646
57 5 0.592615 0.184445 0.521921
59 3 0.615329 0.282572 0.465599
66 7 0.597638 0.397918 0.513424
61 5 0.623978 0.263634 0.408385
65 6 0.617784 0.397495 0.52
60 5 0.629341 0.256798 0.514032
58 4 0.590492 0.281325 0.46253
62 3 0.627401 0.366117 0.467752
63 5 0.651292 0.370911 0.478215
10 3 0.449287 0.533942 0.514172
11 5 0.469821 0.504363 0.531681
15 5 0.476024 0.553567 0.416825
14 5 0.44859 0.480134 0.399792
12 5 0.45072 0.593557 0.544037
13 3 0.452599 0.538338 0.430669
35 5 0.527123 0.650553 0.649745
36 5 0.487 0.649307 0.633645
34 3 0.509146 0.645812 0.6037
38 3 0.533671 0.555988 0.570251
32 5 0.518171 0.768141 0.575395
40 5 0.541277 0.539229 0.628842
ITEM: TIMESTEP
12000
ITEM: NUMBER OF ATOMS
66
ITEM: BOX BOUNDS pp pp pp
-2.3407027419979162e+01 2.3407027419979162e+01
-8.7776352824922288e+00 8.7776352824922288e+00
-8.7776352824922288e+00 8.7776352824922288e+00
ITEM: ATOMS id type xs ys zs
14 5 0.443144 0.492158 0.394483
46 5 0.534405 0.352975 0.42708
64 5 0.64285 0.348625 0.408712
43 5 0.517087 0.501412 0.419338
56 5 0.598726 0.261939 0.633296
59 3 0.623407 0.356202 0.5185
61 5 0.646857 0.35622 0.524567
58 4 0.613581 0.305767 0.550717
62 3 0.621392 0.331843 0.431113
63 5 0.604242 0.366281 0.398371
27 3 0.481117 0.743651 0.513023
19 5 0.435475 0.596699 0.319931
26 5 0.436695 0.774011 0.502184
18 5 0.400998 0.616775 0.359185
17 3 0.423892 0.614505 0.37481
16 4 0.420793 0.58081 0.430371
21 5 0.408689 0.71444 0.433714
22 5 0.422863 0.737049 0.342725
20 3 0.426895 0.699742 0.392648
24 3 0.451583 0.72455 0.483161
23 4 0.44994 0.705605 0.42043
25 5 0.44417 0.673725 0.516408
15 5 0.457299 0.572872 0.453639
13 3 0.438173 0.534995 0.443099
29 5 0.489511 0.779921 0.465143
47 5 0.502586 0.386165 0.487607
4 6 0.362079 0.486447 0.470476
5 7 0.381281 0.470488 0.453252
9 4 0.409326 0.469942 0.529785
2 5 0.346406 0.522907 0.55434
1 3 0.362175 0.477878 0.53507
3 5 0.351869 0.421453 0.55407
11 5 0.447357 0.44521 0.527811
49 5 0.5224 0.267601 0.54049
45 3 0.526615 0.379681 0.482173
51 4 0.556713 0.306886 0.559101
44 4 0.535474 0.439921 0.498492
42 5 0.555924 0.474607 0.410874
41 3 0.537517 0.489084 0.453931
52 3 0.571169 0.347808 0.593956
54 5 0.576852 0.401233 0.564733
53 5 0.559896 0.361868 0.649585
50 5 0.517506 0.346844 0.599101
48 3 0.532663 0.326291 0.549611
55 3 0.601928 0.318394 0.607773
57 5 0.612568 0.356494 0.651565
66 7 0.611274 0.25032 0.478446
65 6 0.618909 0.267824 0.428411
60 5 0.617202 0.419959 0.51676
28 5 0.478659 0.786805 0.563916
30 4 0.494589 0.686523 0.526781
8 5 0.394483 0.562762 0.580513
7 5 0.395285 0.470943 0.625732
6 3 0.391656 0.499842 0.569547
10 3 0.432878 0.496371 0.523999
12 5 0.439348 0.530206 0.579931
36 5 0.525875 0.6218 0.64477
33 5 0.53061 0.710112 0.491225
31 3 0.518479 0.695898 0.545524
37 4 0.530992 0.572608 0.549102